TITLE = "Mean"
VARIABLES = "X [mm]", "Y [mm]", "Vx [m/s]", "Vy [m/s]"
ZONE T="Frame 1", I=51, J=39, F=POINT
-8.980 41.210 6.80800 0.28927
-6.414 41.210 6.95884 0.32320
-3.848 41.210 7.23763 0.39876
-1.283 41.210 7.17978 0.39963
1.283 41.210 7.33030 0.42933
3.848 41.210 0.00000 -0.00000
6.414 41.210 0.00000 -0.00000
8.980 41.210 0.00000 -0.00000
11.545 41.210 0.00000 -0.00000
14.111 41.210 0.00000 -0.00000
16.676 41.210 0.00000 -0.00000
19.242 41.210 3.57930 0.34049
21.808 41.210 7.75020 0.70026
24.373 41.210 7.37183 0.73037
26.939 41.210 7.46517 0.74084
29.504 41.210 7.50917 0.78246
32.070 41.210 7.55759 0.80311
34.636 41.210 7.63472 0.78775
37.201 41.210 7.63156 0.78658
39.767 41.210 7.68023 0.82281
42.332 41.210 7.76750 0.82195
44.898 41.210 7.81332 0.82899
47.464 41.210 7.88832 0.82323
50.029 41.210 7.93868 0.82542
52.595 41.210 8.04325 0.79593
55.160 41.210 8.04142 0.83263
57.726 41.210 8.14530 0.75511
60.292 41.210 8.20541 0.77725
62.857 41.210 8.22300 0.72957
65.423 41.210 8.31735 0.73987
67.988 41.210 8.32470 0.69160
70.554 41.210 8.42450 0.65402
73.120 41.210 8.45813 0.63198
75.685 41.210 8.46064 0.60962
78.251 41.210 8.49920 0.51959
80.816 41.210 0.00000 0.00000
83.382 41.210 8.53073 0.42905
85.948 41.210 8.58916 0.39803
88.513 41.210 8.61564 0.29786
91.079 41.210 8.60757 0.24419
93.644 41.210 8.61938 0.15283
96.210 41.210 8.62317 0.09442
98.776 41.210 8.62746 0.03130
101.341 41.210 8.57654 -0.08312
103.907 41.210 8.57728 -0.13594
106.472 41.210 8.54146 -0.19566
109.038 41.210 8.50481 -0.23052
111.603 41.210 8.36279 -0.28827
114.169 41.210 8.02673 -0.28389
116.735 41.210 6.41902 -0.30123
119.300 41.210 0.00000 -0.00000
-8.980 38.644 6.89671 0.30082
-6.414 38.644 7.21808 0.35562
-3.848 38.644 7.22544 0.38420
-1.283 38.644 7.16615 0.44069
1.283 38.644 7.56761 0.49547
3.848 38.644 0.00000 -0.00000
6.414 38.644 0.00000 -0.00000
8.980 38.644 0.00000 -0.00000
11.545 38.644 0.00000 -0.00000
14.111 38.644 0.00000 -0.00000
16.676 38.644 0.00000 -0.00000
19.242 38.644 3.43831 0.38582
21.808 38.644 7.82029 0.79962
24.373 38.644 7.34780 0.78789
26.939 38.644 7.44489 0.80748
29.504 38.644 7.47801 0.82871
32.070 38.644 7.52811 0.84416
34.636 38.644 7.58777 0.85855
37.201 38.644 7.64045 0.90146
39.767 38.644 7.67005 0.87445
42.332 38.644 7.78565 0.90677
44.898 38.644 7.80593 0.88290
47.464 38.644 7.89087 0.88802
50.029 38.644 7.91687 0.88179
52.595 38.644 8.03585 0.90287
55.160 38.644 8.11889 0.85648
57.726 38.644 8.11566 0.85784
60.292 38.644 8.20900 0.83710
62.857 38.644 8.26185 0.78962
65.423 38.644 8.37503 0.78056
67.988 38.644 8.36489 0.74768
70.554 38.644 8.43713 0.74703
73.120 38.644 8.47819 0.66998
75.685 38.644 8.55439 0.67796
78.251 38.644 8.57540 0.57373
80.816 38.644 0.00000 0.00000
83.382 38.644 8.60650 0.43816
85.948 38.644 8.70148 0.41018
88.513 38.644 8.67671 0.30143
91.079 38.644 8.68944 0.26506
93.644 38.644 8.68354 0.17277
96.210 38.644 8.65479 0.06840
98.776 38.644 8.70560 -0.01950
101.341 38.644 8.63198 -0.10482
103.907 38.644 8.61346 -0.16054
106.472 38.644 8.58174 -0.25685
109.038 38.644 8.46825 -0.31539
111.603 38.644 8.51304 -0.34368
114.169 38.644 8.41503 -0.38799
116.735 38.644 8.23705 -0.41174
119.300 38.644 0.00000 -0.00000
-8.980 36.079 7.17539 0.30004
-6.414 36.079 7.19807 0.33604
-3.848 36.079 7.18737 0.41267
-1.283 36.079 7.10894 0.40756
1.283 36.079 7.52488 0.48123
3.848 36.079 0.00000 -0.00000
6.414 36.079 0.00000 -0.00000
8.980 36.079 0.00000 -0.00000
11.545 36.079 0.00000 -0.00000
14.111 36.079 0.00000 -0.00000
16.676 36.079 0.00000 -0.00000
19.242 36.079 3.28444 0.45003
21.808 36.079 7.82828 0.83537
24.373 36.079 7.28679 0.81877
26.939 36.079 7.40047 0.85818
29.504 36.079 7.47304 0.86208
32.070 36.079 7.48226 0.89343
34.636 36.079 7.56115 0.93059
37.201 36.079 7.63984 0.90943
39.767 36.079 7.68044 0.93765
42.332 36.079 7.73755 0.92966
44.898 36.079 7.83830 0.92025
47.464 36.079 7.91299 0.93992
50.029 36.079 7.95108 0.93208
52.595 36.079 8.01947 0.90898
55.160 36.079 8.11741 0.91094
57.726 36.079 8.19616 0.91864
60.292 36.079 8.24595 0.86657
62.857 36.079 8.30535 0.86675
65.423 36.079 8.37880 0.82634
67.988 36.079 8.41011 0.82418
70.554 36.079 8.47506 0.76901
73.120 36.079 8.55885 0.73888
75.685 36.079 8.55752 0.66044
78.251 36.079 8.63443 0.65891
80.816 36.079 0.00000 0.00000
83.382 36.079 8.62568 0.49183
85.948 36.079 8.69265 0.43686
88.513 36.079 8.78151 0.37496
91.079 36.079 8.75659 0.25727
93.644 36.079 8.77738 0.15419
96.210 36.079 8.74357 0.06106
98.776 36.079 8.74247 -0.04521
101.341 36.079 8.74012 -0.12666
103.907 36.079 8.65373 -0.22908
106.472 36.079 8.65978 -0.25927
109.038 36.079 8.59148 -0.34006
111.603 36.079 8.50198 -0.40004
114.169 36.079 8.48680 -0.45349
116.735 36.079 8.65379 -0.51277
119.300 36.079 0.00000 -0.00000
-8.980 33.513 7.16332 0.29070
-6.414 33.513 7.15262 0.31765
-3.848 33.513 7.14492 0.36187
-1.283 33.513 7.07688 0.44899
1.283 33.513 7.43574 0.49275
3.848 33.513 0.00000 -0.00000
6.414 33.513 0.00000 -0.00000
8.980 33.513 0.00000 -0.00000
11.545 33.513 0.00000 -0.00000
14.111 33.513 0.00000 -0.00000
16.676 33.513 0.00000 -0.00000
19.242 33.513 3.58765 0.47204
21.808 33.513 7.74043 0.87729
24.373 33.513 7.26993 0.85541
26.939 33.513 7.38215 0.89882
29.504 33.513 7.42614 0.92530
32.070 33.513 7.49446 0.95207
34.636 33.513 7.53478 0.97315
37.201 33.513 7.59227 0.97417
39.767 33.513 7.67522 0.98201
42.332 33.513 7.72745 0.98495
44.898 33.513 7.84701 0.99302
47.464 33.513 7.92202 0.98926
50.029 33.513 7.93706 1.00291
52.595 33.513 8.03453 0.96532
55.160 33.513 8.11197 0.96629
57.726 33.513 8.19874 0.93960
60.292 33.513 8.28095 0.93233
62.857 33.513 8.34481 0.91042
65.423 33.513 8.39829 0.89154
67.988 33.513 8.45952 0.86424
70.554 33.513 8.51674 0.81316
73.120 33.513 8.58576 0.77737
75.685 33.513 8.60680 0.72905
78.251 33.513 8.69392 0.68726
80.816 33.513 0.00000 0.00000
83.382 33.513 8.73680 0.50644
85.948 33.513 8.79561 0.46016
88.513 33.513 8.86805 0.36200
91.079 33.513 8.81560 0.22677
93.644 33.513 8.79294 0.14374
96.210 33.513 8.83287 0.03273
98.776 33.513 8.80816 -0.07213
101.341 33.513 8.75767 -0.17785
103.907 33.513 8.75349 -0.24688
106.472 33.513 8.67630 -0.38473
109.038 33.513 8.66039 -0.40772
111.603 33.513 8.55527 -0.47983
114.169 33.513 8.46712 -0.49792
116.735 33.513 8.71360 -0.56404
119.300 33.513 0.00000 -0.00000
-8.980 30.948 7.05850 0.26799
-6.414 30.948 7.13655 0.32340
-3.848 30.948 7.09091 0.36808
-1.283 30.948 7.07978 0.41920
1.283 30.948 7.33127 0.49447
3.848 30.948 0.00000 -0.00000
6.414 30.948 0.00000 -0.00000
8.980 30.948 0.00000 -0.00000
11.545 30.948 0.00000 -0.00000
14.111 30.948 0.00000 -0.00000
16.676 30.948 0.00000 -0.00000
19.242 30.948 3.67060 0.50940
21.808 30.948 7.69467 0.91509
24.373 30.948 7.24612 0.90223
26.939 30.948 7.32680 0.94758
29.504 30.948 7.41978 0.98643
32.070 30.948 7.41925 0.99531
34.636 30.948 7.55434 1.01082
37.201 30.948 7.59154 1.02111
39.767 30.948 7.66086 1.05351
42.332 30.948 7.72603 1.04519
44.898 30.948 7.84775 1.04020
47.464 30.948 7.87487 1.04290
50.029 30.948 7.94901 1.01032
52.595 30.948 8.03463 1.04382
55.160 30.948 8.14001 1.02764
57.726 30.948 8.19889 1.01394
60.292 30.948 8.27896 0.97423
62.857 30.948 8.33893 0.95034
65.423 30.948 8.44702 0.91600
67.988 30.948 8.47624 0.89238
70.554 30.948 8.58406 0.89548
73.120 30.948 8.61244 0.83569
75.685 30.948 8.68336 0.72307
78.251 30.948 8.75100 0.75686
80.816 30.948 0.00000 0.00000
83.382 30.948 8.81812 0.54733
85.948 30.948 8.88492 0.48888
88.513 30.948 8.89099 0.38213
91.079 30.948 8.90221 0.27618
93.644 30.948 8.92517 0.14366
96.210 30.948 8.93914 0.00683
98.776 30.948 8.88334 -0.12205
101.341 30.948 8.85756 -0.21428
103.907 30.948 8.79808 -0.30864
106.472 30.948 8.76663 -0.41997
109.038 30.948 8.68083 -0.43995
111.603 30.948 8.58621 -0.52989
114.169 30.948 8.51071 -0.56473
116.735 30.948 8.76838 -0.60133
119.300 30.948 0.00000 -0.00000
-8.980 28.382 7.09557 0.23074
-6.414 28.382 7.07512 0.29617
-3.848 28.382 7.06343 0.35156
-1.283 28.382 7.01080 0.40366
1.283 28.382 7.27023 0.49542
3.848 28.382 4.71160 0.32217
6.414 28.382 0.00000 -0.00000
8.980 28.382 0.00000 -0.00000
11.545 28.382 0.00000 -0.00000
14.111 28.382 0.00000 -0.00000
16.676 28.382 2.54748 0.35455
19.242 28.382 5.75453 0.75869
21.808 28.382 7.51261 0.95127
24.373 28.382 7.22211 0.94783
26.939 28.382 7.32916 0.99853
29.504 28.382 7.37103 1.02123
32.070 28.382 7.43878 1.07250
34.636 28.382 7.51495 1.09010
37.201 28.382 7.55513 1.11514
39.767 28.382 7.64870 1.10428
42.332 28.382 7.70991 1.09523
44.898 28.382 7.83118 1.11133
47.464 28.382 7.91088 1.09930
50.029 28.382 7.92482 1.10870
52.595 28.382 8.08314 1.08918
55.160 28.382 8.17705 1.07882
57.726 28.382 8.24631 1.06325
60.292 28.382 8.31806 1.03828
62.857 28.382 8.39889 1.00334
65.423 28.382 8.48236 1.00569
67.988 28.382 8.49866 0.95392
70.554 28.382 8.60084 0.92118
73.120 28.382 8.68261 0.88370
75.685 28.382 8.71402 0.87631
78.251 28.382 8.79601 0.74616
80.816 28.382 8.86143 0.69589
83.382 28.382 8.90612 0.59740
85.948 28.382 8.94171 0.50336
88.513 28.382 9.01536 0.42324
91.079 28.382 8.99687 0.28041
93.644 28.382 9.06733 0.14343
96.210 28.382 8.98825 0.00343
98.776 28.382 8.97638 -0.16912
101.341 28.382 8.95232 -0.28929
103.907 28.382 8.90019 -0.37995
106.472 28.382 8.79911 -0.45822
109.038 28.382 8.75387 -0.54783
111.603 28.382 8.64194 -0.59953
114.169 28.382 8.53995 -0.64540
116.735 28.382 8.80832 -0.68312
119.300 28.382 0.00000 -0.00000
-8.980 25.816 7.02990 0.20070
-6.414 25.816 7.05472 0.27924
-3.848 25.816 6.97344 0.32538
-1.283 25.816 7.00675 0.40222
1.283 25.816 6.98470 0.46857
3.848 25.816 6.98533 0.53280
6.414 25.816 0.00000 -0.00000
8.980 25.816 0.00000 -0.00000
11.545 25.816 0.00000 -0.00000
14.111 25.816 0.00000 -0.00000
16.676 25.816 3.69450 0.51461
19.242 25.816 7.79298 0.99238
21.808 25.816 7.11963 0.96331
24.373 25.816 7.21065 1.01133
26.939 25.816 7.27930 1.06118
29.504 25.816 7.34112 1.11088
32.070 25.816 7.42033 1.13533
34.636 25.816 7.44901 1.14226
37.201 25.816 7.57377 1.16822
39.767 25.816 7.65492 1.16227
42.332 25.816 7.76000 1.16708
44.898 25.816 7.77004 1.19170
47.464 25.816 7.89438 1.17894
50.029 25.816 7.97430 1.15685
52.595 25.816 8.08293 1.19453
55.160 25.816 8.16011 1.12396
57.726 25.816 8.28056 1.14006
60.292 25.816 8.30862 1.11672
62.857 25.816 8.44230 1.08550
65.423 25.816 8.47505 1.04870
67.988 25.816 8.54097 1.02056
70.554 25.816 8.67779 0.98618
73.120 25.816 8.68944 0.93762
75.685 25.816 8.79871 0.88698
78.251 25.816 8.85869 0.82489
80.816 25.816 8.87738 0.79031
83.382 25.816 0.00000 0.00000
85.948 25.816 9.08124 0.59243
88.513 25.816 9.14303 0.42807
91.079 25.816 9.12822 0.27342
93.644 25.816 9.15459 0.11824
96.210 25.816 9.15050 -0.03533
98.776 25.816 9.11075 -0.20639
101.341 25.816 9.06194 -0.33981
103.907 25.816 8.98390 -0.42714
106.472 25.816 8.89604 -0.54918
109.038 25.816 8.80633 -0.61973
111.603 25.816 8.71242 -0.68134
114.169 25.816 8.58592 -0.72261
116.735 25.816 8.84554 -0.79150
119.300 25.816 0.00000 -0.00000
-8.980 23.251 7.00966 0.17495
-6.414 23.251 6.99097 0.21987
-3.848 23.251 6.95756 0.29837
-1.283 23.251 6.90755 0.38309
1.283 23.251 6.89257 0.43899
3.848 23.251 7.18270 0.53764
6.414 23.251 0.00000 -0.00000
8.980 23.251 0.00000 -0.00000
11.545 23.251 0.00000 -0.00000
14.111 23.251 0.00000 -0.00000
16.676 23.251 3.40153 0.51736
19.242 23.251 7.80726 1.03789
21.808 23.251 7.01819 1.04587
24.373 23.251 7.19099 1.06875
26.939 23.251 7.23772 1.13246
29.504 23.251 7.29964 1.16693
32.070 23.251 7.39593 1.21106
34.636 23.251 7.45127 1.23494
37.201 23.251 7.52370 1.26214
39.767 23.251 7.66074 1.22615
42.332 23.251 7.72450 1.27288
44.898 23.251 7.81662 1.25028
47.464 23.251 7.91566 1.25568
50.029 23.251 7.97242 1.24195
52.595 23.251 8.08674 1.21694
55.160 23.251 8.17249 1.20967
57.726 23.251 8.26981 1.22115
60.292 23.251 8.37479 1.15127
62.857 23.251 8.43694 1.13334
65.423 23.251 8.47479 1.14382
67.988 23.251 8.61200 1.10439
70.554 23.251 8.68797 1.05579
73.120 23.251 8.72119 1.02855
75.685 23.251 8.86088 0.95270
78.251 23.251 9.01364 0.92108
80.816 23.251 8.97321 0.85121
83.382 23.251 0.00000 0.00000
85.948 23.251 8.80227 0.56819
88.513 23.251 9.24802 0.46758
91.079 23.251 9.37077 0.29874
93.644 23.251 9.37176 0.13530
96.210 23.251 9.31678 -0.08321
98.776 23.251 9.26967 -0.24658
101.341 23.251 9.20285 -0.42200
103.907 23.251 9.13834 -0.55474
106.472 23.251 8.96270 -0.64787
109.038 23.251 8.86179 -0.73932
111.603 23.251 8.72348 -0.77114
114.169 23.251 8.58611 -0.84409
116.735 23.251 8.85790 -0.91812
119.300 23.251 -0.00278 0.04505
-8.980 20.685 6.93826 0.11025
-6.414 20.685 6.94973 0.20126
-3.848 20.685 6.87665 0.24054
-1.283 20.685 6.86265 0.35203
1.283 20.685 6.78420 0.42286
3.848 20.685 7.06440 0.55432
6.414 20.685 0.00000 -0.00000
8.980 20.685 0.00000 -0.00000
11.545 20.685 0.00000 -0.00000
14.111 20.685 0.00000 -0.00000
16.676 20.685 2.96104 0.54697
19.242 20.685 7.53259 1.08581
21.808 20.685 6.99232 1.07271
24.373 20.685 7.11657 1.19078
26.939 20.685 7.20508 1.22142
29.504 20.685 7.26759 1.25773
32.070 20.685 7.36796 1.29985
34.636 20.685 7.43378 1.33525
37.201 20.685 7.55124 1.33895
39.767 20.685 7.58855 1.34899
42.332 20.685 7.72212 1.35084
44.898 20.685 7.82034 1.33145
47.464 20.685 7.89095 1.32592
50.029 20.685 8.01703 1.32616
52.595 20.685 8.12197 1.33606
55.160 20.685 8.17435 1.29284
57.726 20.685 8.29887 1.25920
60.292 20.685 8.33460 1.28298
62.857 20.685 8.51035 1.22013
65.423 20.685 8.68688 1.21839
67.988 20.685 8.19993 1.08140
70.554 20.685 8.47742 1.12743
73.120 20.685 8.82392 1.08464
75.685 20.685 8.89974 1.09163
78.251 20.685 8.29884 0.91510
80.816 20.685 8.21224 0.80633
83.382 20.685 0.00000 0.00000
85.948 20.685 0.00000 0.00000
88.513 20.685 0.00000 0.00000
91.079 20.685 9.52946 0.26132
93.644 20.685 9.58846 0.09465
96.210 20.685 9.55014 -0.15260
98.776 20.685 9.48368 -0.32991
101.341 20.685 9.38305 -0.53508
103.907 20.685 9.23217 -0.70643
106.472 20.685 9.01101 -0.79848
109.038 20.685 8.87848 -0.88446
111.603 20.685 8.62346 -0.92483
114.169 20.685 8.55968 -1.03253
116.735 20.685 8.64185 -1.10687
119.300 20.685 0.00042 0.09532
-8.980 18.120 6.90911 0.07026
-6.414 18.120 6.85221 0.13948
-3.848 18.120 6.80581 0.21107
-1.283 18.120 6.75132 0.28809
1.283 18.120 6.71897 0.41482
3.848 18.120 6.90479 0.53425
6.414 18.120 0.00000 -0.00000
8.980 18.120 0.00000 -0.00000
11.545 18.120 0.00000 -0.00000
14.111 18.120 0.00000 -0.00000
16.676 18.120 2.41056 0.55106
19.242 18.120 7.39608 1.15567
21.808 18.120 6.93675 1.19475
24.373 18.120 7.07318 1.27918
26.939 18.120 7.16901 1.32008
29.504 18.120 7.25434 1.40504
32.070 18.120 7.32513 1.43898
34.636 18.120 7.43174 1.43335
37.201 18.120 7.53713 1.43469
39.767 18.120 7.60402 1.46229
42.332 18.120 7.72471 1.42988
44.898 18.120 7.83196 1.44410
47.464 18.120 7.92459 1.42554
50.029 18.120 7.99710 1.41478
52.595 18.120 8.22218 1.40344
55.160 18.120 7.73570 1.25846
57.726 18.120 8.40339 1.34172
60.292 18.120 8.56235 1.33830
62.857 18.120 8.75639 1.32956
65.423 18.120 5.84780 0.81844
67.988 18.120 0.00000 -0.00000
70.554 18.120 0.00000 -0.00000
73.120 18.120 0.00000 -0.00000
75.685 18.120 0.00000 -0.00000
78.251 18.120 0.00000 -0.00000
80.816 18.120 0.00000 -0.00000
83.382 18.120 0.00000 0.00000
85.948 18.120 0.85905 0.24949
88.513 18.120 2.50284 0.32652
91.079 18.120 7.28734 0.37384
93.644 18.120 9.22542 0.03360
96.210 18.120 9.11929 -0.22599
98.776 18.120 8.74309 -0.42431
101.341 18.120 8.57195 -0.64709
103.907 18.120 8.48240 -0.91503
106.472 18.120 8.11758 -0.96674
109.038 18.120 8.07400 -0.96790
111.603 18.120 7.88042 -1.08644
114.169 18.120 7.74191 -1.05435
116.735 18.120 7.52514 -1.16838
119.300 18.120 0.01345 0.25014
-8.980 15.554 6.87544 0.00159
-6.414 15.554 6.78302 0.06451
-3.848 15.554 6.74889 0.14518
-1.283 15.554 6.64475 0.24062
1.283 15.554 6.61823 0.36167
3.848 15.554 6.54711 0.45323
6.414 15.554 0.00000 -0.00000
8.980 15.554 0.00000 -0.00000
11.545 15.554 0.00000 -0.00000
14.111 15.554 0.00000 -0.00000
16.676 15.554 2.35409 0.55196
19.242 15.554 7.19912 1.26650
21.808 15.554 6.83335 1.31250
24.373 15.554 7.02339 1.40209
26.939 15.554 7.09971 1.45031
29.504 15.554 7.19997 1.51299
32.070 15.554 7.29121 1.56044
34.636 15.554 7.40180 1.54867
37.201 15.554 7.49101 1.57926
39.767 15.554 7.74867 1.56075
42.332 15.554 7.72674 1.53320
44.898 15.554 7.95095 1.54456
47.464 15.554 8.16340 1.56310
50.029 15.554 8.25809 1.52873
52.595 15.554 6.55033 1.10597
55.160 15.554 0.00000 -0.00000
57.726 15.554 0.00000 -0.00000
60.292 15.554 0.00000 -0.00000
62.857 15.554 0.00000 -0.00000
65.423 15.554 0.00000 -0.00000
67.988 15.554 0.00000 -0.00000
70.554 15.554 0.00000 -0.00000
73.120 15.554 0.00000 -0.00000
75.685 15.554 0.00000 -0.00000
78.251 15.554 0.00000 -0.00000
80.816 15.554 -0.58986 -0.17047
83.382 15.554 0.11402 0.08126
85.948 15.554 -0.63500 0.13452
88.513 15.554 -0.27054 0.36388
91.079 15.554 0.77874 0.48419
93.644 15.554 2.44927 0.26640
96.210 15.554 3.14177 0.14006
98.776 15.554 4.23743 -0.23468
101.341 15.554 4.65503 -0.46156
103.907 15.554 5.05248 -0.81826
106.472 15.554 5.41744 -0.77710
109.038 15.554 5.52642 -0.86576
111.603 15.554 5.72637 -1.02863
114.169 15.554 6.08484 -1.10702
116.735 15.554 5.75179 -1.13400
119.300 15.554 0.03643 0.28073
-8.980 12.988 6.83820 -0.07129
-6.414 12.988 6.70728 -0.01863
-3.848 12.988 6.64149 0.06553
-1.283 12.988 6.57400 0.16828
1.283 12.988 6.47034 0.27762
3.848 12.988 6.17644 0.37115
6.414 12.988 0.00000 -0.00000
8.980 12.988 0.00000 -0.00000
11.545 12.988 0.00000 -0.00000
14.111 12.988 0.00000 -0.00000
16.676 12.988 2.79481 0.65138
19.242 12.988 6.77293 1.37650
21.808 12.988 6.94091 1.51458
24.373 12.988 6.97014 1.55435
26.939 12.988 7.07576 1.62415
29.504 12.988 7.35434 1.67849
32.070 12.988 7.28163 1.61301
34.636 12.988 7.27567 1.63891
37.201 12.988 7.74502 1.71166
39.767 12.988 6.28159 1.27428
42.332 12.988 0.00000 -0.00000
44.898 12.988 0.00000 -0.00000
47.464 12.988 0.00000 -0.00000
50.029 12.988 0.00000 -0.00000
52.595 12.988 0.00000 -0.00000
55.160 12.988 0.00000 -0.00000
57.726 12.988 0.00000 -0.00000
60.292 12.988 0.00000 -0.00000
62.857 12.988 0.00000 -0.00000
65.423 12.988 0.00000 -0.00000
67.988 12.988 0.00000 -0.00000
70.554 12.988 0.00000 -0.00000
73.120 12.988 0.00000 -0.00000
75.685 12.988 -0.68217 -0.21139
78.251 12.988 -1.13423 -0.36325
80.816 12.988 -1.49676 -0.39386
83.382 12.988 -1.44491 -0.20128
85.948 12.988 -1.47401 0.18561
88.513 12.988 -1.54180 0.49288
91.079 12.988 -1.41893 0.63432
93.644 12.988 -1.01566 0.61881
96.210 12.988 -0.80343 0.56477
98.776 12.988 -0.19134 0.42961
101.341 12.988 0.76548 0.06914
103.907 12.988 1.33907 0.01097
106.472 12.988 2.21051 -0.09958
109.038 12.988 2.59904 -0.43182
111.603 12.988 3.36670 -0.42459
114.169 12.988 3.77030 -0.89516
116.735 12.988 3.74090 -0.77783
119.300 12.988 0.05671 0.23195
-8.980 10.423 6.73613 -0.18553
-6.414 10.423 6.64962 -0.13202
-3.848 10.423 6.53677 -0.04466
-1.283 10.423 6.43878 0.04557
1.283 10.423 6.29731 0.14869
3.848 10.423 6.20277 0.28910
6.414 10.423 2.44600 0.10079
8.980 10.423 0.00000 -0.00000
11.545 10.423 0.00000 -0.00000
14.111 10.423 0.00000 -0.00000
16.676 10.423 1.93940 0.44652
19.242 10.423 4.39206 0.89988
21.808 10.423 5.82925 1.35852
24.373 10.423 7.24229 1.83155
26.939 10.423 7.28310 1.84672
29.504 10.423 5.13553 1.19834
32.070 10.423 0.00000 -0.00000
34.636 10.423 0.00000 -0.00000
37.201 10.423 0.00000 -0.00000
39.767 10.423 0.00000 -0.00000
42.332 10.423 0.00000 -0.00000
44.898 10.423 0.00000 -0.00000
47.464 10.423 0.00000 -0.00000
50.029 10.423 0.00000 -0.00000
52.595 10.423 0.00000 -0.00000
55.160 10.423 0.00000 -0.00000
57.726 10.423 0.00000 -0.00000
60.292 10.423 0.00000 -0.00000
62.857 10.423 0.00000 -0.00000
65.423 10.423 0.00000 -0.00000
67.988 10.423 -0.62047 -0.22299
70.554 10.423 -0.71722 -0.20762
73.120 10.423 -1.37709 -0.52043
75.685 10.423 -1.82827 -0.67221
78.251 10.423 -1.94717 -0.65630
80.816 10.423 -1.96174 -0.43531
83.382 10.423 -1.93734 -0.25372
85.948 10.423 -1.96881 0.10707
88.513 10.423 -2.01738 0.45317
91.079 10.423 -2.06892 0.66074
93.644 10.423 -1.98652 0.89007
96.210 10.423 -1.74264 0.89395
98.776 10.423 -1.44516 0.92842
101.341 10.423 -1.05359 0.74340
103.907 10.423 -0.70701 0.62483
106.472 10.423 -0.07388 0.65872
109.038 10.423 0.41485 0.13081
111.603 10.423 1.32520 -0.21086
114.169 10.423 1.65687 -0.44532
116.735 10.423 1.87580 -0.47674
119.300 10.423 0.02373 0.24385
-8.980 7.857 6.75918 -0.28811
-6.414 7.857 6.59690 -0.22926
-3.848 7.857 6.46271 -0.21072
-1.283 7.857 6.32620 -0.10491
1.283 7.857 6.07384 0.01854
3.848 7.857 6.29194 0.21409
6.414 7.857 3.15625 0.10798
8.980 7.857 0.00000 -0.00000
11.545 7.857 0.00000 -0.00000
14.111 7.857 -0.00285 0.00048
16.676 7.857 1.09803 0.24779
19.242 7.857 1.94796 0.39747
21.808 7.857 0.00000 -0.00000
24.373 7.857 0.00000 -0.00000
26.939 7.857 0.00000 -0.00000
29.504 7.857 0.00000 -0.00000
32.070 7.857 0.00000 -0.00000
34.636 7.857 0.00000 -0.00000
37.201 7.857 0.00000 -0.00000
39.767 7.857 0.00000 -0.00000
42.332 7.857 0.00000 -0.00000
44.898 7.857 0.00000 -0.00000
47.464 7.857 0.00000 -0.00000
50.029 7.857 0.00000 -0.00000
52.595 7.857 0.00000 -0.00000
55.160 7.857 0.00000 -0.00000
57.726 7.857 0.00000 -0.00000
60.292 7.857 -0.38947 -0.13176
62.857 7.857 -0.52775 -0.16427
65.423 7.857 -0.78602 -0.29928
67.988 7.857 -1.35595 -0.53616
70.554 7.857 -1.70599 -0.78417
73.120 7.857 -1.76607 -0.79373
75.685 7.857 -1.92031 -0.79061
78.251 7.857 -1.93843 -0.66658
80.816 7.857 -2.01543 -0.49393
83.382 7.857 -1.94201 -0.19028
85.948 7.857 -1.99343 0.07856
88.513 7.857 -2.04212 0.26909
91.079 7.857 -2.20310 0.69028
93.644 7.857 -2.18514 0.98865
96.210 7.857 -2.14905 1.07515
98.776 7.857 -2.03593 1.11336
101.341 7.857 -1.92902 1.16631
103.907 7.857 -1.80446 1.17905
106.472 7.857 -1.43814 0.89270
109.038 7.857 -1.03576 0.72876
111.603 7.857 -0.43380 0.27283
114.169 7.857 -0.09506 -0.09561
116.735 7.857 0.49536 -0.31937
119.300 7.857 -0.05919 -0.02300
-8.980 5.292 6.70419 -0.39988
-6.414 5.292 6.57793 -0.41865
-3.848 5.292 6.38761 -0.35189
-1.283 5.292 6.19560 -0.30950
1.283 5.292 5.94940 -0.19618
3.848 5.292 6.33984 0.04456
6.414 5.292 2.42472 0.03424
8.980 5.292 0.00000 -0.00000
11.545 5.292 0.00000 -0.00000
14.111 5.292 0.00000 -0.00000
16.676 5.292 0.00000 -0.00000
19.242 5.292 0.00000 -0.00000
21.808 5.292 0.00000 -0.00000
24.373 5.292 0.00000 -0.00000
26.939 5.292 0.00000 -0.00000
29.504 5.292 0.00000 -0.00000
32.070 5.292 0.00000 -0.00000
34.636 5.292 0.00000 -0.00000
37.201 5.292 0.00000 -0.00000
39.767 5.292 0.00000 -0.00000
42.332 5.292 0.00000 -0.00000
44.898 5.292 0.00000 -0.00000
47.464 5.292 0.00000 -0.00000
50.029 5.292 0.00000 -0.00000
52.595 5.292 -0.31598 -0.11478
55.160 5.292 -0.50362 -0.15960
57.726 5.292 -0.58723 -0.22188
60.292 5.292 -0.83742 -0.32227
62.857 5.292 -1.52434 -0.60622
65.423 5.292 -1.58196 -0.71173
67.988 5.292 -1.63326 -0.77837
70.554 5.292 -1.63794 -0.84554
73.120 5.292 -1.68334 -0.87666
75.685 5.292 -1.67592 -0.81883
78.251 5.292 -1.65599 -0.66449
80.816 5.292 -1.59934 -0.45736
83.382 5.292 -1.57566 -0.17296
85.948 5.292 -1.68340 0.06215
88.513 5.292 -1.74506 0.28813
91.079 5.292 -1.75552 0.64872
93.644 5.292 -1.89757 0.92276
96.210 5.292 -1.99076 1.06773
98.776 5.292 -2.04806 1.36824
101.341 5.292 -2.02648 1.41923
103.907 5.292 -1.92499 1.29281
106.472 5.292 -1.96474 1.21298
109.038 5.292 -1.63625 1.00255
111.603 5.292 -1.39675 0.54731
114.169 5.292 -1.05842 0.26349
116.735 5.292 -0.57514 0.11408
119.300 5.292 -0.07458 -0.07198
-8.980 2.726 6.73301 -0.54272
-6.414 2.726 6.55659 -0.54444
-3.848 2.726 6.37406 -0.56401
-1.283 2.726 6.12284 -0.52366
1.283 2.726 6.12761 -0.49009
3.848 2.726 4.96865 -0.15399
6.414 2.726 0.00000 -0.00000
8.980 2.726 0.00000 -0.00000
11.545 2.726 0.00000 -0.00000
14.111 2.726 0.00000 -0.00000
16.676 2.726 0.00000 -0.00000
19.242 2.726 0.00000 -0.00000
21.808 2.726 0.00000 -0.00000
24.373 2.726 0.00000 -0.00000
26.939 2.726 0.00000 -0.00000
29.504 2.726 0.00000 -0.00000
32.070 2.726 0.00000 -0.00000
34.636 2.726 0.00000 -0.00000
37.201 2.726 0.00000 -0.00000
39.767 2.726 0.00000 -0.00000
42.332 2.726 0.00000 -0.00000
44.898 2.726 0.00000 -0.00000
47.464 2.726 -0.52221 -0.18676
50.029 2.726 -0.43340 -0.13410
52.595 2.726 -0.71427 -0.29292
55.160 2.726 -1.06755 -0.42850
57.726 2.726 -1.39603 -0.59851
60.292 2.726 -1.42458 -0.65673
62.857 2.726 -1.60311 -0.75301
65.423 2.726 -1.51669 -0.77489
67.988 2.726 -1.45190 -0.77907
70.554 2.726 -1.37986 -0.88939
73.120 2.726 -1.31553 -0.85779
75.685 2.726 -1.17577 -0.75283
78.251 2.726 -1.12654 -0.71120
80.816 2.726 -1.21431 -0.47599
83.382 2.726 -1.00706 -0.35031
85.948 2.726 -0.99355 0.08500
88.513 2.726 -0.91095 0.30346
91.079 2.726 -1.07942 0.62404
93.644 2.726 -1.25744 0.76890
96.210 2.726 -1.42760 0.95228
98.776 2.726 -1.50254 1.21955
101.341 2.726 -1.62380 1.41694
103.907 2.726 -1.66488 1.37221
106.472 2.726 -1.60501 1.28905
109.038 2.726 -1.77197 1.13291
111.603 2.726 -1.37224 0.81143
114.169 2.726 -1.23004 0.64342
116.735 2.726 -0.66830 0.53432
119.300 2.726 -0.11510 0.26366
-8.980 0.160 6.71229 -0.64322
-6.414 0.160 6.61042 -0.68331
-3.848 0.160 6.36895 -0.72084
-1.283 0.160 6.19302 -0.74389
1.283 0.160 6.21831 -0.79031
3.848 0.160 0.00000 -0.00000
6.414 0.160 0.00000 -0.00000
8.980 0.160 0.00000 -0.00000
11.545 0.160 0.00000 -0.00000
14.111 0.160 0.00000 -0.00000
16.676 0.160 0.00000 -0.00000
19.242 0.160 0.00000 -0.00000
21.808 0.160 0.00000 -0.00000
24.373 0.160 0.00000 -0.00000
26.939 0.160 0.00000 -0.00000
29.504 0.160 0.00000 -0.00000
32.070 0.160 0.00000 -0.00000
34.636 0.160 0.00000 -0.00000
37.201 0.160 0.00000 -0.00000
39.767 0.160 -0.49196 -0.14249
42.332 0.160 -0.49691 -0.13412
44.898 0.160 -0.76209 -0.29559
47.464 0.160 -0.97257 -0.37476
50.029 0.160 -1.29399 -0.47374
52.595 0.160 -1.32339 -0.48949
55.160 0.160 -1.33034 -0.56844
57.726 0.160 -1.38647 -0.68489
60.292 0.160 -1.33295 -0.68162
62.857 0.160 -1.26028 -0.71729
65.423 0.160 -1.16253 -0.67649
67.988 0.160 -1.12441 -0.78942
70.554 0.160 -1.03769 -0.84767
73.120 0.160 -0.86557 -0.82309
75.685 0.160 -0.70988 -0.74784
78.251 0.160 -0.58351 -0.66062
80.816 0.160 -0.49791 -0.53961
83.382 0.160 -0.34574 -0.35564
85.948 0.160 -0.34255 -0.05300
88.513 0.160 -0.33832 0.16388
91.079 0.160 -0.32156 0.39547
93.644 0.160 -0.44814 0.57311
96.210 0.160 -0.58849 0.79222
98.776 0.160 -0.73021 1.07048
101.341 0.160 -0.81987 1.31177
103.907 0.160 -0.76340 1.42054
106.472 0.160 -0.87164 1.30476
109.038 0.160 -0.98644 1.17390
111.603 0.160 -0.94263 0.99982
114.169 0.160 -0.70617 0.94605
116.735 0.160 -0.31118 0.80668
119.300 0.160 -0.05918 0.61788
-8.980 -2.405 6.80693 -0.73198
-6.414 -2.405 6.65991 -0.80105
-3.848 -2.405 6.46098 -0.83257
-1.283 -2.405 6.38267 -0.94268
1.283 -2.405 0.00000 -0.00000
3.848 -2.405 0.00000 -0.00000
6.414 -2.405 0.00000 -0.00000
8.980 -2.405 0.00000 -0.00000
11.545 -2.405 0.00000 -0.00000
14.111 -2.405 0.00000 -0.00000
16.676 -2.405 0.00000 -0.00000
19.242 -2.405 0.00000 -0.00000
21.808 -2.405 0.00000 -0.00000
24.373 -2.405 0.00000 -0.00000
26.939 -2.405 0.00000 -0.00000
29.504 -2.405 0.00000 -0.00000
32.070 -2.405 -0.44672 -0.13458
34.636 -2.405 -0.49761 -0.13238
37.201 -2.405 -0.82052 -0.23453
39.767 -2.405 -1.05929 -0.31832
42.332 -2.405 -1.29768 -0.42056
44.898 -2.405 -1.33401 -0.43503
47.464 -2.405 -1.38135 -0.53826
50.029 -2.405 -1.38199 -0.54314
52.595 -2.405 -1.32958 -0.49088
55.160 -2.405 -1.16935 -0.49444
57.726 -2.405 -1.05895 -0.61803
60.292 -2.405 -0.91671 -0.59575
62.857 -2.405 -0.78403 -0.70258
65.423 -2.405 -0.72111 -0.66205
67.988 -2.405 -0.65978 -0.67686
70.554 -2.405 -0.55685 -0.62345
73.120 -2.405 -0.36050 -0.67647
75.685 -2.405 -0.10859 -0.60486
78.251 -2.405 0.19818 -0.47720
80.816 -2.405 0.25966 -0.39150
83.382 -2.405 0.32504 -0.35587
85.948 -2.405 0.38908 -0.18226
88.513 -2.405 0.45101 0.14932
91.079 -2.405 0.46741 0.34226
93.644 -2.405 0.50958 0.55220
96.210 -2.405 0.56838 0.67818
98.776 -2.405 0.39585 0.97625
101.341 -2.405 0.37641 1.19426
103.907 -2.405 0.33061 1.35751
106.472 -2.405 0.28038 1.28499
109.038 -2.405 0.17594 1.25108
111.603 -2.405 0.35645 1.27582
114.169 -2.405 0.38903 1.19027
116.735 -2.405 0.58942 1.08933
119.300 -2.405 -0.00498 0.59771
-8.980 -4.971 6.88383 -0.82161
-6.414 -4.971 6.74464 -0.87476
-3.848 -4.971 6.58503 -0.97625
-1.283 -4.971 6.42632 -1.15069
1.283 -4.971 0.00000 -0.00000
3.848 -4.971 0.00000 -0.00000
6.414 -4.971 0.00000 -0.00000
8.980 -4.971 0.00000 -0.00000
11.545 -4.971 0.00000 -0.00000
14.111 -4.971 0.00000 -0.00000
16.676 -4.971 0.00000 -0.00000
19.242 -4.971 0.00000 -0.00000
21.808 -4.971 0.00000 -0.00000
24.373 -4.971 -0.24938 -0.11748
26.939 -4.971 -0.47235 -0.16314
29.504 -4.971 -0.71544 -0.24748
32.070 -4.971 -1.02456 -0.31914
34.636 -4.971 -1.13838 -0.36970
37.201 -4.971 -1.30754 -0.36552
39.767 -4.971 -1.31532 -0.40026
42.332 -4.971 -1.27559 -0.41227
44.898 -4.971 -1.22858 -0.43419
47.464 -4.971 -1.23364 -0.45872
50.029 -4.971 -1.11668 -0.48858
52.595 -4.971 -0.85041 -0.38124
55.160 -4.971 -0.77434 -0.42356
57.726 -4.971 -0.69706 -0.45794
60.292 -4.971 -0.54846 -0.51911
62.857 -4.971 -0.32871 -0.63594
65.423 -4.971 -0.16809 -0.59697
67.988 -4.971 -0.01141 -0.55510
70.554 -4.971 0.15338 -0.46831
73.120 -4.971 0.34034 -0.43755
75.685 -4.971 0.60335 -0.43451
78.251 -4.971 0.80972 -0.41833
80.816 -4.971 0.96939 -0.30869
83.382 -4.971 1.21705 -0.22360
85.948 -4.971 1.40501 0.03598
88.513 -4.971 1.45084 0.07797
91.079 -4.971 1.43929 0.29877
93.644 -4.971 1.53560 0.46668
96.210 -4.971 1.55456 0.69711
98.776 -4.971 1.64025 0.84043
101.341 -4.971 1.59276 1.05236
103.907 -4.971 1.57910 1.24292
106.472 -4.971 1.54305 1.31642
109.038 -4.971 1.62930 1.43755
111.603 -4.971 1.70387 1.52932
114.169 -4.971 1.68876 1.40589
116.735 -4.971 1.99329 1.34483
119.300 -4.971 0.02408 0.61847
-8.980 -7.536 6.97240 -0.88706
-6.414 -7.536 6.88801 -0.97961
-3.848 -7.536 6.74988 -1.12001
-1.283 -7.536 6.61415 -1.32262
1.283 -7.536 6.51297 -1.63214
3.848 -7.536 0.00000 -0.00000
6.414 -7.536 5.15912 -2.10203
8.980 -7.536 5.10050 -2.56268
11.545 -7.536 4.33827 -1.95162
14.111 -7.536 1.37626 -0.61792