TITLE = "B00096"
VARIABLES = "X [mm]", "Y [mm]", "Vx [m/s]", "Vy [m/s]", "Flag"
ZONE T="Frame 1", I=51, J=39, F=POINT
-8.980 41.210 7.18797 0.18741 2 
-6.414 41.210 7.25254 0.19619 2 
-3.848 41.210 7.28709 0.50168 2 
-1.283 41.210 7.29149 0.44583 2 
1.283 41.210 7.64211 0.24370 2 
3.848 41.210 0.00000 -0.00000 0 
6.414 41.210 0.00000 -0.00000 0 
8.980 41.210 0.00000 -0.00000 0 
11.545 41.210 0.00000 -0.00000 0 
14.111 41.210 0.00000 -0.00000 0 
16.676 41.210 0.00000 -0.00000 0 
19.242 41.210 3.98089 0.36513 2 
21.808 41.210 7.96178 0.73027 2 
24.373 41.210 7.31787 0.72035 2 
26.939 41.210 7.43276 0.86391 2 
29.504 41.210 7.45849 0.79171 2 
32.070 41.210 7.48422 0.71951 2 
34.636 41.210 7.70515 0.85504 2 
37.201 41.210 7.72020 0.69158 2 
39.767 41.210 7.69677 1.01270 2 
42.332 41.210 7.82802 0.86160 2 
44.898 41.210 7.75025 0.77703 2 
47.464 41.210 8.05669 0.80087 2 
50.029 41.210 7.94954 0.85254 2 
52.595 41.210 8.08057 0.74161 2 
55.160 41.210 8.02371 0.89337 2 
57.726 41.210 8.14667 0.84185 2 
60.292 41.210 8.15184 0.72195 2 
62.857 41.210 8.20103 0.61378 2 
65.423 41.210 8.41213 0.78217 2 
67.988 41.210 8.31937 0.68653 2 
70.554 41.210 8.39728 0.84579 2 
73.120 41.210 8.43335 0.34477 2 
75.685 41.210 8.52009 0.89327 2 
78.251 41.210 8.47609 0.45886 2 
80.816 41.210 0.00000 0.00000 0 
83.382 41.210 8.39184 0.35673 2 
85.948 41.210 8.46057 0.39940 2 
88.513 41.210 8.65378 0.24085 2 
91.079 41.210 8.55526 0.23287 2 
93.644 41.210 8.64232 0.15352 2 
96.210 41.210 8.55572 0.24217 2 
98.776 41.210 8.63233 -0.12382 2 
101.341 41.210 8.52990 -0.09376 2 
103.907 41.210 8.33957 -0.22323 2 
106.472 41.210 8.50693 0.00111 2 
109.038 41.210 8.32036 -0.03045 2 
111.603 41.210 8.42913 0.01701 2 
114.169 41.210 8.18268 -0.20630 2 
116.735 41.210 8.28959 -0.16553 2 
119.300 41.210 0.00000 -0.00000 0 
-8.980 38.644 7.19942 0.31684 2 
-6.414 38.644 7.26764 0.21691 2 
-3.848 38.644 7.20275 0.42697 2 
-1.283 38.644 7.25020 0.41345 2 
1.283 38.644 7.44107 0.44585 2 
3.848 38.644 0.00000 -0.00000 0 
6.414 38.644 0.00000 -0.00000 0 
8.980 38.644 0.00000 -0.00000 0 
11.545 38.644 0.00000 -0.00000 0 
14.111 38.644 0.00000 -0.00000 0 
16.676 38.644 0.00000 -0.00000 0 
19.242 38.644 3.99087 0.38922 2 
21.808 38.644 7.98173 0.77844 2 
24.373 38.644 7.33311 0.82346 2 
26.939 38.644 7.55138 0.93170 2 
29.504 38.644 7.41890 0.92483 2 
32.070 38.644 7.73241 0.85131 2 
34.636 38.644 7.57672 0.84497 2 
37.201 38.644 7.66088 1.09519 2 
39.767 38.644 7.75867 0.83684 2 
42.332 38.644 7.67003 0.94908 2 
44.898 38.644 7.85164 0.96158 2 
47.464 38.644 7.77755 0.91318 2 
50.029 38.644 7.95027 0.63534 2 
52.595 38.644 8.26320 1.12026 2 
55.160 38.644 8.09322 0.94749 2 
57.726 38.644 8.08890 0.81117 2 
60.292 38.644 8.25347 0.80938 2 
62.857 38.644 8.20394 0.88640 2 
65.423 38.644 8.48159 0.54409 2 
67.988 38.644 8.34773 0.75338 2 
70.554 38.644 8.49442 0.73160 2 
73.120 38.644 8.50399 0.52430 2 
75.685 38.644 8.66262 0.96637 2 
78.251 38.644 8.48984 0.59800 2 
80.816 38.644 0.00000 0.00000 0 
83.382 38.644 8.67086 0.33417 2 
85.948 38.644 8.74634 0.24122 2 
88.513 38.644 8.66586 0.36632 2 
91.079 38.644 8.73102 0.20574 2 
93.644 38.644 8.64091 -0.05291 2 
96.210 38.644 8.35944 0.15382 2 
98.776 38.644 8.56874 0.14043 2 
101.341 38.644 8.58155 -0.06096 2 
103.907 38.644 8.51730 -0.22131 2 
106.472 38.644 8.30547 -0.22225 2 
109.038 38.644 8.15428 -0.31083 2 
111.603 38.644 8.33329 -0.29859 2 
114.169 38.644 8.14484 -0.12814 2 
116.735 38.644 8.42370 -0.28814 2 
119.300 38.644 0.00000 -0.00000 0 
-8.980 36.079 7.14894 0.39149 2 
-6.414 36.079 7.20969 0.26276 2 
-3.848 36.079 7.02944 0.49825 2 
-1.283 36.079 7.11458 0.49361 2 
1.283 36.079 7.63347 0.36431 2 
3.848 36.079 0.00000 -0.00000 0 
6.414 36.079 0.00000 -0.00000 0 
8.980 36.079 0.00000 -0.00000 0 
11.545 36.079 0.00000 -0.00000 0 
14.111 36.079 0.00000 -0.00000 0 
16.676 36.079 0.00000 -0.00000 0 
19.242 36.079 3.98060 0.43332 2 
21.808 36.079 7.96119 0.86664 2 
24.373 36.079 7.18092 0.66746 2 
26.939 36.079 7.43315 0.81662 2 
29.504 36.079 7.56113 0.76125 2 
32.070 36.079 7.46280 0.88566 2 
34.636 36.079 7.62437 0.99391 2 
37.201 36.079 7.59636 0.96269 2 
39.767 36.079 7.63500 0.80040 2 
42.332 36.079 7.93740 0.77326 2 
44.898 36.079 7.97932 0.88101 2 
47.464 36.079 7.96376 0.93831 2 
50.029 36.079 8.16048 0.88059 2 
52.595 36.079 8.04313 0.89902 2 
55.160 36.079 8.12235 0.68693 2 
57.726 36.079 8.32986 0.99277 2 
60.292 36.079 8.35530 0.91303 2 
62.857 36.079 8.27386 0.59823 2 
65.423 36.079 8.51542 0.82801 2 
67.988 36.079 8.54878 0.93410 2 
70.554 36.079 8.46687 0.78927 2 
73.120 36.079 8.57573 0.69644 2 
75.685 36.079 8.47232 0.58996 2 
78.251 36.079 8.88658 0.70176 2 
80.816 36.079 0.00000 0.00000 0 
83.382 36.079 8.59747 0.53314 2 
85.948 36.079 8.54277 0.48652 2 
88.513 36.079 8.78977 0.42127 2 
91.079 36.079 8.71517 0.20290 2 
93.644 36.079 8.85789 0.13088 2 
96.210 36.079 8.78420 0.03397 2 
98.776 36.079 8.78021 -0.17785 2 
101.341 36.079 8.59990 -0.10120 2 
103.907 36.079 8.58881 -0.31705 2 
106.472 36.079 8.42330 -0.38522 2 
109.038 36.079 8.34834 -0.21371 2 
111.603 36.079 8.27944 -0.36344 2 
114.169 36.079 7.89548 -0.32586 2 
116.735 36.079 8.10430 -0.35026 2 
119.300 36.079 0.00000 -0.00000 0 
-8.980 33.513 7.08727 0.19639 2 
-6.414 33.513 7.27920 0.36343 2 
-3.848 33.513 6.99564 0.45016 2 
-1.283 33.513 7.13214 0.48797 2 
1.283 33.513 7.37298 0.54256 2 
3.848 33.513 0.00000 -0.00000 0 
6.414 33.513 0.00000 -0.00000 0 
8.980 33.513 0.00000 -0.00000 0 
11.545 33.513 0.00000 -0.00000 0 
14.111 33.513 0.00000 -0.00000 0 
16.676 33.513 0.00000 -0.00000 0 
19.242 33.513 3.93190 0.57968 2 
21.808 33.513 7.86381 1.15937 2 
24.373 33.513 7.29888 0.74571 2 
26.939 33.513 7.34548 1.00438 2 
29.504 33.513 7.40208 0.74382 2 
32.070 33.513 7.59566 0.98031 2 
34.636 33.513 7.50710 0.97427 2 
37.201 33.513 7.66591 0.97398 2 
39.767 33.513 7.71607 1.01999 2 
42.332 33.513 7.74274 0.92265 2 
44.898 33.513 7.98689 1.09516 2 
47.464 33.513 8.06586 1.02345 2 
50.029 33.513 7.90719 1.11298 2 
52.595 33.513 7.94211 1.03670 2 
55.160 33.513 8.10948 0.90097 2 
57.726 33.513 8.14974 1.04077 2 
60.292 33.513 8.33964 1.10889 2 
62.857 33.513 8.30602 0.91239 2 
65.423 33.513 8.41220 0.96807 2 
67.988 33.513 8.39721 0.98053 2 
70.554 33.513 8.44173 0.91355 2 
73.120 33.513 8.68001 0.82386 2 
75.685 33.513 8.50640 0.94477 2 
78.251 33.513 8.67060 0.71024 2 
80.816 33.513 0.00000 0.00000 0 
83.382 33.513 8.69034 0.46576 2 
85.948 33.513 8.71979 0.35999 2 
88.513 33.513 8.93909 0.28341 2 
91.079 33.513 8.93202 0.08198 2 
93.644 33.513 8.88252 0.31071 2 
96.210 33.513 8.78625 -0.16611 2 
98.776 33.513 8.92317 -0.31361 2 
101.341 33.513 8.67174 -0.31758 2 
103.907 33.513 8.71356 -0.37723 2 
106.472 33.513 8.61661 -0.61678 2 
109.038 33.513 8.28215 -0.32258 2 
111.603 33.513 8.25609 -0.63238 2 
114.169 33.513 7.95458 -0.40722 2 
116.735 33.513 8.22525 -0.21964 2 
119.300 33.513 0.00000 -0.00000 0 
-8.980 30.948 7.14006 0.35502 2 
-6.414 30.948 7.08218 0.28213 2 
-3.848 30.948 7.08609 0.38763 2 
-1.283 30.948 7.02224 0.27642 2 
1.283 30.948 7.23634 0.57025 2 
3.848 30.948 0.00000 -0.00000 0 
6.414 30.948 0.00000 -0.00000 0 
8.980 30.948 0.00000 -0.00000 0 
11.545 30.948 0.00000 -0.00000 0 
14.111 30.948 0.00000 -0.00000 0 
16.676 30.948 0.00000 -0.00000 0 
19.242 30.948 3.85156 0.46591 2 
21.808 30.948 7.70312 0.93183 2 
24.373 30.948 7.22871 0.78201 2 
26.939 30.948 7.37349 1.02054 2 
29.504 30.948 7.50127 0.91368 2 
32.070 30.948 7.37952 1.15909 2 
34.636 30.948 7.51747 1.04988 2 
37.201 30.948 7.56446 0.91620 2 
39.767 30.948 7.57336 0.91047 2 
42.332 30.948 7.77094 1.11032 2 
44.898 30.948 7.80829 0.90183 2 
47.464 30.948 7.92201 1.10412 2 
50.029 30.948 7.82257 0.84167 2 
52.595 30.948 7.81933 1.27987 2 
55.160 30.948 7.96228 0.86386 2 
57.726 30.948 8.28842 1.04230 2 
60.292 30.948 8.35454 0.92663 2 
62.857 30.948 8.42470 1.01321 2 
65.423 30.948 8.48097 0.82584 2 
67.988 30.948 8.45268 0.93360 2 
70.554 30.948 8.55865 0.97977 2 
73.120 30.948 8.53693 0.86150 2 
75.685 30.948 8.52060 0.68968 2 
78.251 30.948 8.86105 0.96510 2 
80.816 30.948 0.00000 0.00000 0 
83.382 30.948 8.82257 0.63887 2 
85.948 30.948 8.87544 0.49312 2 
88.513 30.948 8.80605 0.61841 2 
91.079 30.948 8.85337 0.15459 2 
93.644 30.948 9.05279 -0.03433 2 
96.210 30.948 8.93226 0.01429 2 
98.776 30.948 8.65432 -0.22307 2 
101.341 30.948 8.86078 -0.67491 2 
103.907 30.948 8.62024 -0.51241 2 
106.472 30.948 8.47864 -0.58661 2 
109.038 30.948 8.32249 -0.69373 2 
111.603 30.948 8.13203 -0.83077 2 
114.169 30.948 7.95221 -0.59919 2 
116.735 30.948 7.96098 -0.34309 2 
119.300 30.948 0.00000 -0.00000 0 
-8.980 28.382 7.08608 0.28646 2 
-6.414 28.382 7.06683 0.29014 2 
-3.848 28.382 7.05581 0.31588 2 
-1.283 28.382 7.14605 0.47897 2 
1.283 28.382 7.09970 0.59793 2 
3.848 28.382 6.23363 0.49892 2 
6.414 28.382 0.00000 -0.00000 0 
8.980 28.382 0.00000 -0.00000 0 
11.545 28.382 0.00000 -0.00000 0 
14.111 28.382 0.00000 -0.00000 0 
16.676 28.382 2.93731 0.42258 2 
19.242 28.382 5.42406 0.75925 2 
21.808 28.382 7.46024 1.01001 2 
24.373 28.382 7.17005 0.92681 2 
26.939 28.382 7.28888 0.91803 2 
29.504 28.382 7.27783 0.95750 2 
32.070 28.382 7.56787 1.10052 2 
34.636 28.382 7.43393 0.97981 2 
37.201 28.382 7.54941 1.01873 2 
39.767 28.382 7.52761 1.09727 2 
42.332 28.382 7.79964 1.24183 2 
44.898 28.382 7.73196 1.21994 2 
47.464 28.382 7.95825 1.14673 2 
50.029 28.382 7.78341 1.12340 2 
52.595 28.382 8.39486 1.02043 2 
55.160 28.382 8.36021 0.97601 2 
57.726 28.382 8.14508 1.08821 2 
60.292 28.382 8.13230 1.18584 2 
62.857 28.382 8.52590 0.99173 2 
65.423 28.382 8.48277 0.94419 2 
67.988 28.382 8.43448 0.91178 2 
70.554 28.382 8.56410 0.80272 2 
73.120 28.382 8.68005 0.89388 2 
75.685 28.382 8.89026 0.89462 2 
78.251 28.382 8.83187 0.81856 2 
80.816 28.382 8.97907 0.66025 2 
83.382 28.382 9.03567 0.56790 2 
85.948 28.382 9.09228 0.47556 2 
88.513 28.382 9.22682 0.29432 2 
91.079 28.382 8.86277 0.29373 2 
93.644 28.382 9.34513 0.25114 2 
96.210 28.382 8.83829 -0.14401 2 
98.776 28.382 9.09090 -0.79991 2 
101.341 28.382 8.97694 -0.55381 2 
103.907 28.382 8.71841 -0.78598 2 
106.472 28.382 8.57030 -0.87535 2 
109.038 28.382 8.40117 -1.05237 2 
111.603 28.382 7.99340 -0.73130 2 
114.169 28.382 7.82596 -0.91209 2 
116.735 28.382 8.22447 -0.80810 2 
119.300 28.382 0.00000 -0.00000 0 
-8.980 25.816 6.98288 0.08977 2 
-6.414 25.816 7.14695 0.34112 2 
-3.848 25.816 6.95321 0.50498 2 
-1.283 25.816 6.96983 0.36973 2 
1.283 25.816 6.97994 0.54935 2 
3.848 25.816 7.84500 0.70136 2 
6.414 25.816 0.00000 -0.00000 0 
8.980 25.816 0.00000 -0.00000 0 
11.545 25.816 0.00000 -0.00000 0 
14.111 25.816 0.00000 -0.00000 0 
16.676 25.816 4.40597 0.63387 2 
19.242 25.816 6.52732 0.84970 2 
21.808 25.816 7.08523 0.83839 2 
24.373 25.816 7.17907 1.03867 2 
26.939 25.816 7.27852 1.19040 2 
29.504 25.816 7.42900 1.14969 2 
32.070 25.816 7.34924 1.17922 2 
34.636 25.816 7.52500 1.10918 2 
37.201 25.816 7.58998 1.13996 2 
39.767 25.816 7.74076 1.22560 2 
42.332 25.816 7.77905 1.04348 2 
44.898 25.816 7.69955 1.28972 2 
47.464 25.816 7.90651 1.05280 2 
50.029 25.816 8.27185 1.14113 2 
52.595 25.816 8.15705 1.16265 2 
55.160 25.816 8.11968 1.04387 2 
57.726 25.816 8.13840 1.20305 2 
60.292 25.816 8.38254 1.25725 2 
62.857 25.816 8.40816 1.07460 2 
65.423 25.816 8.36501 1.05283 2 
67.988 25.816 8.59542 1.00126 2 
70.554 25.816 8.89555 0.98424 2 
73.120 25.816 8.74456 0.89895 2 
75.685 25.816 8.69641 0.84986 2 
78.251 25.816 9.05146 0.77005 2 
80.816 25.816 8.75219 0.81322 2 
83.382 25.816 0.00000 0.00000 0 
85.948 25.816 9.22223 0.50596 2 
88.513 25.816 8.94985 0.59433 2 
91.079 25.816 9.23769 0.27390 2 
93.644 25.816 9.24886 -0.06114 2 
96.210 25.816 9.25164 -0.38099 2 
98.776 25.816 9.32584 -0.53539 2 
101.341 25.816 9.03152 -0.52698 2 
103.907 25.816 8.85215 -1.13363 2 
106.472 25.816 8.92887 -1.14171 2 
109.038 25.816 8.21928 -1.20714 2 
111.603 25.816 7.94733 -1.19605 2 
114.169 25.816 7.63625 -1.01927 2 
116.735 25.816 7.92758 -1.03383 2 
119.300 25.816 0.00000 -0.00000 0 
-8.980 23.251 7.02765 0.18072 2 
-6.414 23.251 7.00281 0.14299 2 
-3.848 23.251 7.04699 0.30752 2 
-1.283 23.251 6.86583 0.36432 2 
1.283 23.251 6.94366 0.41308 2 
3.848 23.251 7.20276 0.51881 2 
6.414 23.251 0.00000 -0.00000 0 
8.980 23.251 0.00000 -0.00000 0 
11.545 23.251 0.00000 -0.00000 0 
14.111 23.251 0.00000 -0.00000 0 
16.676 23.251 3.81529 0.47008 2 
19.242 23.251 7.63058 0.94016 2 
21.808 23.251 6.89312 0.97958 2 
24.373 23.251 7.27982 0.87087 2 
26.939 23.251 7.22689 1.02856 2 
29.504 23.251 7.20520 1.20754 2 
32.070 23.251 7.35794 1.25937 2 
34.636 23.251 7.39985 1.29427 2 
37.201 23.251 7.59377 1.37618 2 
39.767 23.251 7.67325 1.16173 2 
42.332 23.251 7.61890 1.21530 2 
44.898 23.251 7.84627 1.23940 2 
47.464 23.251 7.88564 1.09711 2 
50.029 23.251 7.93921 1.44963 2 
52.595 23.251 8.00619 1.16583 2 
55.160 23.251 8.16601 1.30259 2 
57.726 23.251 8.14159 1.19543 2 
60.292 23.251 8.56533 1.03827 2 
62.857 23.251 8.50061 1.00078 2 
65.423 23.251 8.55164 1.44202 2 
67.988 23.251 8.49098 1.04367 2 
70.554 23.251 8.70050 1.10872 2 
73.120 23.251 8.78642 0.91411 2 
75.685 23.251 9.40498 0.95735 2 
78.251 23.251 9.04097 1.01271 2 
80.816 23.251 9.16402 0.80589 2 
83.382 23.251 0.00000 0.00000 0 
85.948 23.251 9.29560 0.73239 2 
88.513 23.251 9.56417 0.62315 2 
91.079 23.251 9.25907 0.23462 2 
93.644 23.251 9.57103 0.04613 2 
96.210 23.251 9.43970 -0.18248 2 
98.776 23.251 9.64582 -0.54870 2 
101.341 23.251 9.35294 -0.98869 2 
103.907 23.251 9.39916 -0.99132 2 
106.472 23.251 8.78351 -1.63085 2 
109.038 23.251 8.44903 -1.63506 2 
111.603 23.251 7.95245 -1.70156 2 
114.169 23.251 7.38410 -1.63326 2 
116.735 23.251 7.55495 -1.62166 2 
119.300 23.251 0.00000 -0.00000 0 
-8.980 20.685 7.04258 0.08642 2 
-6.414 20.685 6.96994 0.18955 2 
-3.848 20.685 6.79359 0.30969 2 
-1.283 20.685 6.80236 0.27338 2 
1.283 20.685 6.80352 0.49533 2 
3.848 20.685 7.37774 0.54402 2 
6.414 20.685 0.00000 -0.00000 0 
8.980 20.685 0.00000 -0.00000 0 
11.545 20.685 0.00000 -0.00000 0 
14.111 20.685 0.00000 -0.00000 0 
16.676 20.685 3.96155 0.53859 2 
19.242 20.685 7.92310 1.07719 2 
21.808 20.685 6.97274 1.15067 2 
24.373 20.685 7.20747 1.27552 2 
26.939 20.685 7.08361 1.19692 2 
29.504 20.685 7.28939 1.17418 2 
32.070 20.685 7.46775 1.27081 2 
34.636 20.685 7.40174 1.27055 2 
37.201 20.685 7.69874 1.44266 2 
39.767 20.685 7.58543 1.36202 2 
42.332 20.685 7.85714 1.50135 2 
44.898 20.685 7.63711 1.53612 2 
47.464 20.685 7.78819 1.40811 2 
50.029 20.685 8.12668 1.18653 2 
52.595 20.685 8.04004 1.31699 2 
55.160 20.685 8.21163 1.36349 2 
57.726 20.685 8.19244 1.34320 2 
60.292 20.685 8.20971 1.27546 2 
62.857 20.685 8.50000 1.34754 2 
65.423 20.685 8.83260 1.40023 2 
67.988 20.685 9.08812 1.21014 2 
70.554 20.685 9.02661 1.43483 2 
73.120 20.685 9.41252 1.18002 2 
75.685 20.685 8.40365 1.08259 2 
78.251 20.685 9.69078 0.97913 2 
80.816 20.685 10.00855 1.04333 2 
83.382 20.685 0.00000 0.00000 0 
85.948 20.685 0.00000 0.00000 0 
88.513 20.685 0.00000 0.00000 0 
91.079 20.685 10.10303 0.45186 2 
93.644 20.685 10.34606 0.64713 2 
96.210 20.685 9.96913 -0.27368 2 
98.776 20.685 10.35668 -0.57598 2 
101.341 20.685 10.12169 -1.08701 2 
103.907 20.685 9.68601 -0.96202 2 
106.472 20.685 9.28946 -2.28740 2 
109.038 20.685 8.57245 -2.55020 2 
111.603 20.685 7.72643 -2.46089 2 
114.169 20.685 7.21322 -2.24901 2 
116.735 20.685 7.18162 -1.81238 2 
119.300 20.685 0.00000 -0.00000 0 
-8.980 18.120 6.93288 0.08420 2 
-6.414 18.120 6.92730 0.17990 2 
-3.848 18.120 6.86540 0.22685 2 
-1.283 18.120 6.88576 0.40118 2 
1.283 18.120 6.57601 0.51048 2 
3.848 18.120 7.12807 0.67164 2 
6.414 18.120 0.00000 -0.00000 0 
8.980 18.120 0.00000 -0.00000 0 
11.545 18.120 0.00000 -0.00000 0 
14.111 18.120 0.00000 -0.00000 0 
16.676 18.120 3.75818 0.58149 2 
19.242 18.120 7.51635 1.16299 2 
21.808 18.120 6.93233 1.15423 2 
24.373 18.120 7.12064 1.47583 2 
26.939 18.120 7.22740 1.26911 2 
29.504 18.120 7.10771 1.42537 2 
32.070 18.120 7.55363 1.55361 2 
34.636 18.120 7.40079 1.54199 2 
37.201 18.120 7.47664 1.51181 2 
39.767 18.120 7.53428 1.31419 2 
42.332 18.120 7.64140 1.44531 2 
44.898 18.120 7.84758 1.44374 2 
47.464 18.120 7.87940 1.29266 2 
50.029 18.120 7.85391 1.40024 2 
52.595 18.120 8.21742 1.39457 2 
55.160 18.120 8.72777 1.30968 2 
57.726 18.120 8.66601 1.30543 2 
60.292 18.120 8.78686 1.64472 2 
62.857 18.120 9.45990 1.35459 2 
65.423 18.120 8.87354 0.97107 2 
67.988 18.120 0.00000 -0.00000 0 
70.554 18.120 0.00000 -0.00000 0 
73.120 18.120 0.00000 -0.00000 0 
75.685 18.120 0.00000 -0.00000 0 
78.251 18.120 0.00000 -0.00000 0 
80.816 18.120 0.00000 -0.00000 0 
83.382 18.120 0.00000 -0.00000 0 
85.948 18.120 0.10733 -0.00872 2 
88.513 18.120 -0.30389 0.62567 2 
91.079 18.120 11.00158 0.71543 2 
93.644 18.120 5.86455 0.63456 2 
96.210 18.120 11.85194 0.64405 2 
98.776 18.120 6.96422 -0.35567 2 
101.341 18.120 8.00635 -0.18776 2 
103.907 18.120 9.97286 -0.93271 2 
106.472 18.120 8.93254 -3.07219 2 
109.038 18.120 8.73864 -3.72257 2 
111.603 18.120 7.57796 -3.40493 2 
114.169 18.120 6.96556 -2.92813 2 
116.735 18.120 6.76910 -2.17434 2 
119.300 18.120 0.00000 -0.00000 0 
-8.980 15.554 6.87296 0.11423 2 
-6.414 15.554 6.79340 0.00373 2 
-3.848 15.554 6.89028 0.19255 2 
-1.283 15.554 6.55439 0.25140 2 
1.283 15.554 6.61058 0.28960 2 
3.848 15.554 6.69929 0.62425 2 
6.414 15.554 0.00000 -0.00000 0 
8.980 15.554 0.00000 -0.00000 0 
11.545 15.554 0.00000 -0.00000 0 
14.111 15.554 0.00000 -0.00000 0 
16.676 15.554 3.58377 0.60629 2 
19.242 15.554 7.16754 1.21259 2 
21.808 15.554 6.75261 1.15239 2 
24.373 15.554 7.11193 1.35349 2 
26.939 15.554 7.03364 1.49224 2 
29.504 15.554 7.22578 1.51036 2 
32.070 15.554 7.25475 1.43074 2 
34.636 15.554 7.37471 1.63862 2 
37.201 15.554 7.34895 1.42816 2 
39.767 15.554 7.80268 1.70488 2 
42.332 15.554 7.90397 1.36885 2 
44.898 15.554 8.19309 1.68289 2 
47.464 15.554 8.13847 1.79466 2 
50.029 15.554 8.35688 1.59142 2 
52.595 15.554 8.47422 1.65408 2 
55.160 15.554 0.00000 -0.00000 0 
57.726 15.554 0.00000 -0.00000 0 
60.292 15.554 0.00000 -0.00000 0 
62.857 15.554 0.00000 -0.00000 0 
65.423 15.554 0.00000 -0.00000 0 
67.988 15.554 0.00000 -0.00000 0 
70.554 15.554 0.00000 -0.00000 0 
73.120 15.554 0.00000 -0.00000 0 
75.685 15.554 0.00000 -0.00000 0 
78.251 15.554 0.00000 -0.00000 0 
80.816 15.554 -0.27704 0.04449 2 
83.382 15.554 -0.14473 -0.22213 2 
85.948 15.554 -0.96191 -0.12864 2 
88.513 15.554 -0.71059 0.88792 2 
91.079 15.554 0.43050 0.65847 2 
93.644 15.554 1.38303 0.62200 2 
96.210 15.554 2.83284 0.51167 2 
98.776 15.554 3.57176 -0.13535 2 
101.341 15.554 5.89101 0.71149 2 
103.907 15.554 6.73894 2.19559 2 
106.472 15.554 8.57561 -3.85699 2 
109.038 15.554 8.42947 -5.26720 2 
111.603 15.554 7.36314 -5.03151 2 
114.169 15.554 6.22157 -3.93834 2 
116.735 15.554 5.96179 -3.53111 2 
119.300 15.554 0.00000 -0.00000 0 
-8.980 12.988 6.80438 -0.08303 2 
-6.414 12.988 6.83578 -0.06726 2 
-3.848 12.988 6.63656 -0.06552 2 
-1.283 12.988 6.57441 0.25770 2 
1.283 12.988 6.37864 0.15096 2 
3.848 12.988 6.51126 0.35001 2 
6.414 12.988 0.00000 -0.00000 0 
8.980 12.988 0.00000 -0.00000 0 
11.545 12.988 0.00000 -0.00000 0 
14.111 12.988 0.00000 -0.00000 0 
16.676 12.988 3.69177 0.72824 2 
19.242 12.988 7.38355 1.45648 2 
21.808 12.988 6.67699 1.53391 2 
24.373 12.988 7.02421 1.61009 2 
26.939 12.988 7.19369 1.62386 2 
29.504 12.988 7.44027 1.68725 2 
32.070 12.988 7.74658 1.78110 2 
34.636 12.988 7.86855 2.00163 2 
37.201 12.988 7.77600 1.94604 2 
39.767 12.988 7.91286 1.67384 2 
42.332 12.988 0.00000 -0.00000 0 
44.898 12.988 0.00000 -0.00000 0 
47.464 12.988 0.00000 -0.00000 0 
50.029 12.988 0.00000 -0.00000 0 
52.595 12.988 0.00000 -0.00000 0 
55.160 12.988 0.00000 -0.00000 0 
57.726 12.988 0.00000 -0.00000 0 
60.292 12.988 0.00000 -0.00000 0 
62.857 12.988 0.00000 -0.00000 0 
65.423 12.988 0.00000 -0.00000 0 
67.988 12.988 0.00000 -0.00000 0 
70.554 12.988 0.00000 -0.00000 0 
73.120 12.988 0.00000 -0.00000 0 
75.685 12.988 -0.25105 -0.17688 2 
78.251 12.988 -0.20290 0.13820 2 
80.816 12.988 -0.55408 0.08897 2 
83.382 12.988 -0.28946 -0.44426 2 
85.948 12.988 -1.39746 -0.03960 2 
88.513 12.988 -1.49831 0.98989 2 
91.079 12.988 -2.19503 0.43055 2 
93.644 12.988 -0.82417 0.63429 2 
96.210 12.988 0.54670 0.83803 2 
98.776 12.988 0.63896 0.64620 2 
101.341 12.988 2.41705 1.18972 2 
103.907 12.988 2.56562 2.03761 2 
106.472 12.988 3.80247 -0.64818 2 
109.038 12.988 5.49521 -4.90809 2 
111.603 12.988 5.10322 -4.93291 2 
114.169 12.988 5.38558 -5.21821 2 
116.735 12.988 5.58775 -4.18354 2 
119.300 12.988 0.00000 -0.00000 0 
-8.980 10.423 6.89365 -0.12799 2 
-6.414 10.423 6.69688 -0.10810 2 
-3.848 10.423 6.51241 -0.08831 2 
-1.283 10.423 6.51177 0.20956 2 
1.283 10.423 6.40554 0.27077 2 
3.848 10.423 6.59479 0.31492 2 
6.414 10.423 3.29740 0.15746 2 
8.980 10.423 0.00000 -0.00000 0 
11.545 10.423 0.00000 -0.00000 0 
14.111 10.423 0.00000 -0.00000 0 
16.676 10.423 2.46118 0.48549 2 
19.242 10.423 4.92236 0.97099 2 
21.808 10.423 7.16341 1.84790 2 
24.373 10.423 7.09206 1.84007 2 
26.939 10.423 7.76535 1.89003 2 
29.504 10.423 7.45026 1.91678 2 
32.070 10.423 0.00000 -0.00000 0 
34.636 10.423 0.00000 -0.00000 0 
37.201 10.423 0.00000 -0.00000 0 
39.767 10.423 0.00000 -0.00000 0 
42.332 10.423 0.00000 -0.00000 0 
44.898 10.423 0.00000 -0.00000 0 
47.464 10.423 0.00000 -0.00000 0 
50.029 10.423 0.00000 -0.00000 0 
52.595 10.423 0.00000 -0.00000 0 
55.160 10.423 0.00000 -0.00000 0 
57.726 10.423 0.00000 -0.00000 0 
60.292 10.423 0.00000 -0.00000 0 
62.857 10.423 0.00000 -0.00000 0 
65.423 10.423 0.00000 -0.00000 0 
67.988 10.423 -0.38131 -0.02075 2 
70.554 10.423 -0.04858 0.14220 2 
73.120 10.423 -0.55549 -0.44087 2 
75.685 10.423 -0.77966 -0.21661 2 
78.251 10.423 -0.26048 -0.80582 2 
80.816 10.423 -0.47875 -0.50482 2 
83.382 10.423 -0.76028 -0.80038 2 
85.948 10.423 -2.07162 0.53420 2 
88.513 10.423 -2.28603 1.09185 2 
91.079 10.423 -2.91753 0.66836 2 
93.644 10.423 -1.92780 0.57913 2 
96.210 10.423 -0.93807 0.48990 2 
98.776 10.423 -1.41733 0.86432 2 
101.341 10.423 -1.05692 1.66795 2 
103.907 10.423 -1.60769 1.87963 2 
106.472 10.423 -3.45483 2.28079 2 
109.038 10.423 2.56094 -4.54899 2 
111.603 10.423 3.07408 -5.19564 2 
114.169 10.423 3.58721 -5.84228 2 
116.735 10.423 3.62243 -4.17593 2 
119.300 10.423 0.00000 -0.00000 0 
-8.980 7.857 6.73722 -0.29267 2 
-6.414 7.857 6.63781 -0.27833 2 
-3.848 7.857 6.55007 -0.06900 2 
-1.283 7.857 6.28493 -0.10906 2 
1.283 7.857 6.00664 0.07642 2 
3.848 7.857 6.25522 0.31270 2 
6.414 7.857 3.12761 0.15635 2 
8.980 7.857 0.00000 -0.00000 0 
11.545 7.857 0.00000 -0.00000 0 
14.111 7.857 0.00000 -0.00000 2 
16.676 7.857 1.64079 0.32366 2 
19.242 7.857 2.46118 0.48549 2 
21.808 7.857 0.00000 -0.00000 0 
24.373 7.857 0.00000 -0.00000 0 
26.939 7.857 0.00000 -0.00000 0 
29.504 7.857 0.00000 -0.00000 0 
32.070 7.857 0.00000 -0.00000 0 
34.636 7.857 0.00000 -0.00000 0 
37.201 7.857 0.00000 -0.00000 0 
39.767 7.857 0.00000 -0.00000 0 
42.332 7.857 0.00000 -0.00000 0 
44.898 7.857 0.00000 -0.00000 0 
47.464 7.857 0.00000 -0.00000 0 
50.029 7.857 0.00000 -0.00000 0 
52.595 7.857 0.00000 -0.00000 0 
55.160 7.857 0.00000 -0.00000 0 
57.726 7.857 0.00000 -0.00000 0 
60.292 7.857 -0.36638 -0.18234 2 
62.857 7.857 -0.15221 -0.21690 2 
65.423 7.857 -0.69883 -0.22454 2 
67.988 7.857 -0.76261 -0.04151 2 
70.554 7.857 -0.73241 -0.55156 2 
73.120 7.857 -0.62295 -0.79148 2 
75.685 7.857 -0.36534 -1.00398 2 
78.251 7.857 -0.32945 -1.15851 2 
80.816 7.857 -0.74292 -1.52914 2 
83.382 7.857 -1.23110 -1.15650 2 
85.948 7.857 -1.83042 0.10811 2 
88.513 7.857 -2.16465 0.87220 2 
91.079 7.857 -2.06169 1.35859 2 
93.644 7.857 -2.86071 1.06264 2 
96.210 7.857 -3.33226 0.95157 2 
98.776 7.857 -3.80381 0.84050 2 
101.341 7.857 -4.32603 0.71927 2 
103.907 7.857 -3.94613 1.10784 2 
106.472 7.857 -3.46407 -1.98485 2 
109.038 7.857 -3.08664 -3.09123 2 
111.603 7.857 -1.08175 -5.12462 2 
114.169 7.857 2.13630 -5.70382 2 
116.735 7.857 1.61344 -3.40681 2 
119.300 7.857 0.09998 -4.22182 2 
-8.980 5.292 6.66445 -0.47547 2 
-6.414 5.292 6.57425 -0.37991 2 
-3.848 5.292 6.42241 -0.41509 2 
-1.283 5.292 6.17106 -0.09159 2 
1.283 5.292 5.88621 -0.29334 2 
3.848 5.292 6.61278 0.06166 2 
6.414 5.292 3.30639 0.03083 2 
8.980 5.292 0.00000 -0.00000 0 
11.545 5.292 0.00000 -0.00000 0 
14.111 5.292 0.00000 -0.00000 0 
16.676 5.292 0.00000 -0.00000 0 
19.242 5.292 0.00000 -0.00000 0 
21.808 5.292 0.00000 -0.00000 0 
24.373 5.292 0.00000 -0.00000 0 
26.939 5.292 0.00000 -0.00000 0 
29.504 5.292 0.00000 -0.00000 0 
32.070 5.292 0.00000 -0.00000 0 
34.636 5.292 0.00000 -0.00000 0 
37.201 5.292 0.00000 -0.00000 0 
39.767 5.292 0.00000 -0.00000 0 
42.332 5.292 0.00000 -0.00000 0 
44.898 5.292 0.00000 -0.00000 0 
47.464 5.292 0.00000 -0.00000 0 
50.029 5.292 0.00000 -0.00000 0 
52.595 5.292 -0.28345 -0.07367 2 
55.160 5.292 -0.68709 -0.29770 2 
57.726 5.292 -0.62209 -0.33142 2 
60.292 5.292 -0.73275 -0.36469 2 
62.857 5.292 -1.06678 -0.34394 2 
65.423 5.292 -0.51056 -0.38724 2 
67.988 5.292 -1.11709 -0.03040 2 
70.554 5.292 -0.98946 -0.23706 2 
73.120 5.292 -0.81665 -0.71854 2 
75.685 5.292 -0.69585 -1.26489 2 
78.251 5.292 -0.35526 -0.78496 2 
80.816 5.292 -0.39169 -1.44472 2 
83.382 5.292 -0.47625 -1.34379 2 
85.948 5.292 -1.53694 0.52491 2 
88.513 5.292 -2.15249 0.28544 2 
91.079 5.292 -1.99912 -0.00369 2 
93.644 5.292 -2.50685 0.18626 2 
96.210 5.292 -3.39121 0.11873 2 
98.776 5.292 -4.27556 0.05119 2 
101.341 5.292 -2.86741 0.20126 2 
103.907 5.292 -4.16813 -0.53498 2 
106.472 5.292 -4.02127 0.01874 2 
109.038 5.292 -2.85068 -1.27740 2 
111.603 5.292 -0.88638 -4.68526 2 
114.169 5.292 -2.44537 -3.98707 2 
116.735 5.292 0.50169 -4.01144 2 
119.300 5.292 0.19835 -3.70903 2 
-8.980 2.726 6.58499 -0.42480 2 
-6.414 2.726 6.43734 -0.62124 2 
-3.848 2.726 6.18938 -0.46021 2 
-1.283 2.726 5.99425 -0.55813 2 
1.283 2.726 6.24621 -0.35588 2 
3.848 2.726 5.69009 -0.29569 2 
6.414 2.726 0.00000 -0.00000 0 
8.980 2.726 0.00000 -0.00000 0 
11.545 2.726 0.00000 -0.00000 0 
14.111 2.726 0.00000 -0.00000 0 
16.676 2.726 0.00000 -0.00000 0 
19.242 2.726 0.00000 -0.00000 0 
21.808 2.726 0.00000 -0.00000 0 
24.373 2.726 0.00000 -0.00000 0 
26.939 2.726 0.00000 -0.00000 0 
29.504 2.726 0.00000 -0.00000 0 
32.070 2.726 0.00000 -0.00000 0 
34.636 2.726 0.00000 -0.00000 0 
37.201 2.726 0.00000 -0.00000 0 
39.767 2.726 0.00000 -0.00000 0 
42.332 2.726 0.00000 -0.00000 0 
44.898 2.726 0.00000 -0.00000 0 
47.464 2.726 -0.37076 -0.19015 2 
50.029 2.726 -0.62324 -0.09358 2 
52.595 2.726 -0.56691 -0.14735 2 
55.160 2.726 -1.37418 -0.59541 2 
57.726 2.726 -1.50598 -0.37373 2 
60.292 2.726 -1.25301 -0.07090 2 
62.857 2.726 -1.02051 -0.44829 2 
65.423 2.726 -0.32229 -0.54993 2 
67.988 2.726 -0.57732 -0.57727 2 
70.554 2.726 -0.82056 -0.71489 2 
73.120 2.726 -0.92820 -0.71030 2 
75.685 2.726 -1.09454 -0.74547 2 
78.251 2.726 -0.61437 -0.78771 2 
80.816 2.726 -0.71891 -1.61203 2 
83.382 2.726 -0.65737 -0.78152 2 
85.948 2.726 -1.38923 -1.19475 2 
88.513 2.726 -2.14032 -0.30132 2 
91.079 2.726 -1.78555 -0.07170 2 
93.644 2.726 -2.45602 -0.79453 2 
96.210 2.726 -2.91741 -0.30674 2 
98.776 2.726 -2.80372 -0.39399 2 
101.341 2.726 -4.55735 -0.29418 2 
103.907 2.726 -4.27945 0.13064 2 
106.472 2.726 -2.93629 -0.17461 2 
109.038 2.726 -2.69129 -0.75884 2 
111.603 2.726 -4.01674 -1.62286 2 
114.169 2.726 -1.38102 -2.70806 2 
116.735 2.726 0.61275 -2.91046 2 
119.300 2.726 -0.06095 -2.73286 2 
-8.980 0.160 6.75139 -0.61068 2 
-6.414 0.160 6.63417 -0.62227 2 
-3.848 0.160 6.50079 -0.75239 2 
-1.283 0.160 6.06321 -0.68697 2 
1.283 0.160 6.22691 -0.82429 2 
3.848 0.160 0.00000 -0.00000 0 
6.414 0.160 0.00000 -0.00000 0 
8.980 0.160 0.00000 -0.00000 0 
11.545 0.160 0.00000 -0.00000 0 
14.111 0.160 0.00000 -0.00000 0 
16.676 0.160 0.00000 -0.00000 0 
19.242 0.160 0.00000 -0.00000 0 
21.808 0.160 0.00000 -0.00000 0 
24.373 0.160 0.00000 -0.00000 0 
26.939 0.160 0.00000 -0.00000 0 
29.504 0.160 0.00000 -0.00000 0 
32.070 0.160 0.00000 -0.00000 0 
34.636 0.160 0.00000 -0.00000 0 
37.201 0.160 0.00000 -0.00000 0 
39.767 0.160 -0.52100 -0.18444 2 
42.332 0.160 -0.67648 -0.43586 2 
44.898 0.160 -0.93490 -0.28458 2 
47.464 0.160 -0.74151 -0.38031 2 
50.029 0.160 -0.94026 -0.80739 2 
52.595 0.160 -1.28856 -0.90180 2 
55.160 0.160 -1.28457 -0.93413 2 
57.726 0.160 -1.40678 -0.72996 2 
60.292 0.160 -0.85150 -0.31069 2 
62.857 0.160 -1.49244 -0.49429 2 
65.423 0.160 -0.46207 -0.59087 2 
67.988 0.160 -0.74527 -0.34928 2 
70.554 0.160 -0.65165 -1.19273 2 
73.120 0.160 -1.03975 -0.70206 2 
75.685 0.160 -1.00442 -0.71033 2 
78.251 0.160 -0.83376 -0.72027 2 
80.816 0.160 -0.84831 -1.51495 2 
83.382 0.160 -0.55208 -1.36081 2 
85.948 0.160 -0.96972 -1.75847 2 
88.513 0.160 -0.89997 -0.79846 2 
91.079 0.160 -2.57363 -1.04111 2 
93.644 0.160 -2.22734 -0.92648 2 
96.210 0.160 -2.07366 -0.27432 2 
98.776 0.160 -1.64671 -0.75657 2 
101.341 0.160 -1.02680 -0.60128 2 
103.907 0.160 -0.36118 -0.34524 2 
106.472 0.160 -1.85131 -0.36796 2 
109.038 0.160 -1.59973 -1.73465 2 
111.603 0.160 -1.92310 -1.41403 2 
114.169 0.160 -0.31666 -1.42904 2 
116.735 0.160 1.25010 -1.93161 2 
119.300 0.160 0.08025 -2.06686 2 
-8.980 -2.405 6.75254 -0.63138 2 
-6.414 -2.405 6.73578 -0.74973 2 
-3.848 -2.405 6.31419 -0.89923 2 
-1.283 -2.405 6.23712 -0.73088 2 
1.283 -2.405 0.00000 -0.00000 0 
3.848 -2.405 0.00000 -0.00000 0 
6.414 -2.405 0.00000 -0.00000 0 
8.980 -2.405 0.00000 -0.00000 0 
11.545 -2.405 0.00000 -0.00000 0 
14.111 -2.405 0.00000 -0.00000 0 
16.676 -2.405 0.00000 -0.00000 0 
19.242 -2.405 0.00000 -0.00000 0 
21.808 -2.405 0.00000 -0.00000 0 
24.373 -2.405 0.00000 -0.00000 0 
26.939 -2.405 0.00000 -0.00000 0 
29.504 -2.405 0.00000 -0.00000 0 
32.070 -2.405 -1.05585 -0.45283 2 
34.636 -2.405 -1.11396 -0.46011 2 
37.201 -2.405 -1.18169 -0.49384 2 
39.767 -2.405 -1.04200 -0.36888 2 
42.332 -2.405 -1.69375 -0.37059 2 
44.898 -2.405 -1.15749 -0.58031 2 
47.464 -2.405 -0.78166 -1.11153 2 
50.029 -2.405 -1.20622 -1.12423 2 