TITLE = "B00045"
VARIABLES = "X [mm]", "Y [mm]", "Vx [m/s]", "Vy [m/s]", "Flag"
ZONE T="Frame 1", I=51, J=39, F=POINT
-8.980 41.210 7.17931 0.31925 2 
-6.414 41.210 7.19619 0.37225 2 
-3.848 41.210 7.21308 0.42524 2 
-1.283 41.210 7.27739 0.40599 2 
1.283 41.210 7.72964 0.31634 2 
3.848 41.210 0.00000 -0.00000 0 
6.414 41.210 0.00000 -0.00000 0 
8.980 41.210 0.00000 -0.00000 0 
11.545 41.210 0.00000 -0.00000 0 
14.111 41.210 0.00000 -0.00000 0 
16.676 41.210 0.00000 -0.00000 0 
19.242 41.210 4.03990 0.39465 2 
21.808 41.210 8.07980 0.78930 2 
24.373 41.210 7.33774 0.66131 2 
26.939 41.210 7.39790 0.71967 2 
29.504 41.210 7.50815 0.85181 2 
32.070 41.210 7.56828 0.79672 2 
34.636 41.210 7.54116 0.95212 2 
37.201 41.210 7.67686 0.75329 2 
39.767 41.210 7.54425 1.09737 2 
42.332 41.210 7.69569 0.93698 2 
44.898 41.210 7.80146 0.83806 2 
47.464 41.210 7.90724 0.73913 2 
50.029 41.210 7.88491 0.86019 2 
52.595 41.210 7.94408 0.63423 2 
55.160 41.210 7.96999 0.84096 2 
57.726 41.210 8.02783 0.75025 2 
60.292 41.210 8.12561 0.77709 2 
62.857 41.210 8.02622 0.90714 2 
65.423 41.210 8.47499 0.57743 2 
67.988 41.210 8.30784 0.41029 2 
70.554 41.210 8.36323 0.57587 2 
73.120 41.210 8.50184 0.55577 2 
75.685 41.210 8.34265 0.62245 2 
78.251 41.210 8.44484 0.55518 2 
80.816 41.210 0.00000 0.00000 0 
83.382 41.210 8.41877 0.55502 2 
85.948 41.210 8.52266 0.64500 2 
88.513 41.210 8.57740 0.38138 2 
91.079 41.210 8.44883 0.37087 2 
93.644 41.210 8.52974 0.09422 2 
96.210 41.210 8.59040 0.15829 2 
98.776 41.210 8.69966 0.24510 2 
101.341 41.210 8.38684 0.06698 2 
103.907 41.210 8.66016 -0.28230 2 
106.472 41.210 8.49293 -0.09210 2 
109.038 41.210 8.47972 -0.11556 2 
111.603 41.210 8.57889 -0.06175 2 
114.169 41.210 8.49188 -0.15520 2 
116.735 41.210 8.96536 -0.06331 2 
119.300 41.210 0.00000 -0.00000 0 
-8.980 38.644 7.07232 0.42222 2 
-6.414 38.644 7.12842 0.30280 2 
-3.848 38.644 7.16411 0.40705 2 
-1.283 38.644 7.08032 0.41418 2 
1.283 38.644 7.48062 0.50392 2 
3.848 38.644 0.00000 -0.00000 0 
6.414 38.644 0.00000 -0.00000 0 
8.980 38.644 0.00000 -0.00000 0 
11.545 38.644 0.00000 -0.00000 0 
14.111 38.644 0.00000 -0.00000 0 
16.676 38.644 0.00000 -0.00000 0 
19.242 38.644 3.92183 0.43668 2 
21.808 38.644 7.84366 0.87336 2 
24.373 38.644 7.24274 0.80951 2 
26.939 38.644 7.31480 0.85827 2 
29.504 38.644 7.32363 0.89818 2 
32.070 38.644 7.55948 0.80247 2 
34.636 38.644 7.47437 0.78719 2 
37.201 38.644 7.57226 0.82895 2 
39.767 38.644 7.61772 0.87317 2 
42.332 38.644 7.74595 0.92363 2 
44.898 38.644 7.73188 0.97563 2 
47.464 38.644 7.86321 1.05571 2 
50.029 38.644 7.80430 0.66821 2 
52.595 38.644 7.86821 1.00001 2 
55.160 38.644 7.97733 0.87877 2 
57.726 38.644 7.97090 1.01434 2 
60.292 38.644 8.19419 0.66868 2 
62.857 38.644 8.09447 0.57356 2 
65.423 38.644 8.36997 0.73207 2 
67.988 38.644 8.37588 0.69966 2 
70.554 38.644 8.20945 0.83313 2 
73.120 38.644 8.36883 0.48645 2 
75.685 38.644 8.43524 0.79059 2 
78.251 38.644 8.46140 0.41205 2 
80.816 38.644 0.00000 0.00000 0 
83.382 38.644 8.54670 0.45964 2 
85.948 38.644 8.64156 0.44710 2 
88.513 38.644 8.58854 0.28060 2 
91.079 38.644 8.59639 0.58799 2 
93.644 38.644 8.52932 0.32048 2 
96.210 38.644 8.53495 0.24216 2 
98.776 38.644 8.53886 0.01411 2 
101.341 38.644 8.50453 0.05899 2 
103.907 38.644 8.47946 0.17922 2 
106.472 38.644 8.73752 -0.04181 2 
109.038 38.644 8.50592 -0.11647 2 
111.603 38.644 8.56048 -0.49903 2 
114.169 38.644 8.56755 -0.21830 2 
116.735 38.644 8.92641 -0.31789 2 
119.300 38.644 0.00000 -0.00000 0 
-8.980 36.079 7.08610 0.25665 2 
-6.414 36.079 7.10486 0.41973 2 
-3.848 36.079 7.17742 0.25290 2 
-1.283 36.079 7.09003 0.32777 2 
1.283 36.079 7.55271 0.37718 2 
3.848 36.079 0.00000 -0.00000 0 
6.414 36.079 0.00000 -0.00000 0 
8.980 36.079 0.00000 -0.00000 0 
11.545 36.079 0.00000 -0.00000 0 
14.111 36.079 0.00000 -0.00000 0 
16.676 36.079 0.00000 -0.00000 0 
19.242 36.079 3.95558 0.44437 2 
21.808 36.079 7.91115 0.88874 2 
24.373 36.079 7.25544 0.79374 2 
26.939 36.079 7.29319 0.90182 2 
29.504 36.079 7.60269 0.83825 2 
32.070 36.079 7.50115 1.01070 2 
34.636 36.079 7.60065 0.96779 2 
37.201 36.079 7.60265 1.06575 2 
39.767 36.079 7.60757 0.92834 2 
42.332 36.079 7.83644 0.94293 2 
44.898 36.079 7.68090 0.86570 2 
47.464 36.079 7.81124 0.87875 2 
50.029 36.079 7.91385 0.82499 2 
52.595 36.079 7.76158 0.83732 2 
55.160 36.079 7.98418 0.90252 2 
57.726 36.079 8.19435 1.04870 2 
60.292 36.079 8.16448 0.85448 2 
62.857 36.079 8.36598 0.97418 2 
65.423 36.079 8.46540 0.76373 2 
67.988 36.079 8.39203 1.02474 2 
70.554 36.079 8.39772 0.76281 2 
73.120 36.079 8.60431 0.62854 2 
75.685 36.079 8.36425 0.74447 2 
78.251 36.079 8.50824 0.73381 2 
80.816 36.079 0.00000 0.00000 0 
83.382 36.079 8.43531 0.55416 2 
85.948 36.079 8.46041 0.49039 2 
88.513 36.079 8.67636 0.30868 2 
91.079 36.079 8.65275 0.41090 2 
93.644 36.079 8.58548 0.30005 2 
96.210 36.079 8.69779 0.14001 2 
98.776 36.079 8.67780 0.18374 2 
101.341 36.079 8.70498 0.06560 2 
103.907 36.079 8.78657 -0.14860 2 
106.472 36.079 8.65134 -0.18035 2 
109.038 36.079 8.65729 -0.14213 2 
111.603 36.079 8.62945 0.01935 2 
114.169 36.079 8.69824 -0.24171 2 
116.735 36.079 8.82876 -0.20615 2 
119.300 36.079 0.00000 -0.00000 0 
-8.980 33.513 7.20085 0.27571 2 
-6.414 33.513 7.09773 0.24644 2 
-3.848 33.513 7.06254 0.48221 2 
-1.283 33.513 7.24129 0.39645 2 
1.283 33.513 7.52388 0.58452 2 
3.848 33.513 0.00000 -0.00000 0 
6.414 33.513 0.00000 -0.00000 0 
8.980 33.513 0.00000 -0.00000 0 
11.545 33.513 0.00000 -0.00000 0 
14.111 33.513 0.00000 -0.00000 0 
16.676 33.513 0.00000 -0.00000 0 
19.242 33.513 3.85289 0.42091 2 
21.808 33.513 7.70579 0.84183 2 
24.373 33.513 7.20032 0.91581 2 
26.939 33.513 7.23746 0.92224 2 
29.504 33.513 7.26467 0.85532 2 
32.070 33.513 7.42064 0.90726 2 
34.636 33.513 7.35236 0.95402 2 
37.201 33.513 7.46868 0.98984 2 
39.767 33.513 7.55094 0.92473 2 
42.332 33.513 7.63359 0.98261 2 
44.898 33.513 7.82083 1.03072 2 
47.464 33.513 7.89457 1.07357 2 
50.029 33.513 7.91433 0.91582 2 
52.595 33.513 7.92870 0.84917 2 
55.160 33.513 7.99103 0.92627 2 
57.726 33.513 8.20600 0.92947 2 
60.292 33.513 8.23374 0.88552 2 
62.857 33.513 8.42248 0.91987 2 
65.423 33.513 8.21045 0.86076 2 
67.988 33.513 8.32760 0.96834 2 
70.554 33.513 8.39333 0.79300 2 
73.120 33.513 8.68796 0.76195 2 
75.685 33.513 8.47460 0.65924 2 
78.251 33.513 8.51421 0.74747 2 
80.816 33.513 0.00000 0.00000 0 
83.382 33.513 8.59946 0.57918 2 
85.948 33.513 8.65303 0.49595 2 
88.513 33.513 8.74301 0.44460 2 
91.079 33.513 8.70733 0.27497 2 
93.644 33.513 8.69449 0.17962 2 
96.210 33.513 8.59452 0.19705 2 
98.776 33.513 8.72445 0.02848 2 
101.341 33.513 8.84583 0.09068 2 
103.907 33.513 8.64981 -0.03341 2 
106.472 33.513 8.65749 0.01009 2 
109.038 33.513 8.80807 -0.26294 2 
111.603 33.513 8.52114 -0.27258 2 
114.169 33.513 8.78766 -0.30728 2 
116.735 33.513 8.95090 -0.37756 2 
119.300 33.513 0.00000 -0.00000 0 
-8.980 30.948 7.10127 0.24938 2 
-6.414 30.948 7.13326 0.27021 2 
-3.848 30.948 7.04846 0.42611 2 
-1.283 30.948 6.94944 0.40760 2 
1.283 30.948 7.51203 0.41760 2 
3.848 30.948 0.00000 -0.00000 0 
6.414 30.948 0.00000 -0.00000 0 
8.980 30.948 0.00000 -0.00000 0 
11.545 30.948 0.00000 -0.00000 0 
14.111 30.948 0.00000 -0.00000 0 
16.676 30.948 0.00000 -0.00000 0 
19.242 30.948 5.12614 0.52386 2 
21.808 30.948 7.58563 0.88663 2 
24.373 30.948 7.10754 0.85052 2 
26.939 30.948 7.39588 0.93613 2 
29.504 30.948 7.32645 0.98615 2 
32.070 30.948 7.42478 1.01858 2 
34.636 30.948 7.63294 0.97387 2 
37.201 30.948 7.50411 1.00233 2 
39.767 30.948 7.73729 1.15909 2 
42.332 30.948 7.61974 1.05898 2 
44.898 30.948 7.88695 0.86547 2 
47.464 30.948 7.80489 0.89875 2 
50.029 30.948 8.03891 1.06765 2 
52.595 30.948 8.08277 0.92665 2 
55.160 30.948 7.99834 1.06206 2 
57.726 30.948 8.16058 0.95378 2 
60.292 30.948 8.01473 0.93693 2 
62.857 30.948 8.14187 1.06835 2 
65.423 30.948 8.35169 0.84045 2 
67.988 30.948 8.21066 0.76227 2 
70.554 30.948 8.36738 0.97164 2 
73.120 30.948 8.40114 0.72218 2 
75.685 30.948 8.55423 0.87448 2 
78.251 30.948 8.67421 0.65477 2 
80.816 30.948 0.00000 0.00000 0 
83.382 30.948 8.68472 0.60557 2 
85.948 30.948 8.74046 0.52506 2 
88.513 30.948 8.58821 0.50673 2 
91.079 30.948 8.76056 0.40779 2 
93.644 30.948 8.73595 0.30008 2 
96.210 30.948 8.78659 0.14010 2 
98.776 30.948 8.78010 0.16400 2 
101.341 30.948 8.79798 -0.03327 2 
103.907 30.948 8.66525 -0.13460 2 
106.472 30.948 8.70286 -0.14624 2 
109.038 30.948 8.82320 -0.15325 2 
111.603 30.948 8.62332 -0.22682 2 
114.169 30.948 8.63403 -0.23880 2 
116.735 30.948 9.08537 -0.44940 2 
119.300 30.948 0.00000 -0.00000 0 
-8.980 28.382 6.80052 0.28007 2 
-6.414 28.382 7.11448 0.33263 2 
-3.848 28.382 7.03194 0.26517 2 
-1.283 28.382 6.91777 0.33496 2 
1.283 28.382 7.05788 0.53716 2 
3.848 28.382 7.30547 0.31604 2 
6.414 28.382 0.00000 -0.00000 0 
8.980 28.382 0.00000 -0.00000 0 
11.545 28.382 0.00000 -0.00000 0 
14.111 28.382 0.00000 -0.00000 0 
16.676 28.382 3.83632 0.36487 2 
19.242 28.382 7.67263 0.72974 2 
21.808 28.382 7.46548 0.93142 2 
24.373 28.382 7.16583 0.76604 2 
26.939 28.382 7.30180 0.90749 2 
29.504 28.382 7.36518 1.08629 2 
32.070 28.382 7.26854 0.88606 2 
34.636 28.382 7.44208 1.06709 2 
37.201 28.382 7.32964 1.14365 2 
39.767 28.382 7.67117 1.02057 2 
42.332 28.382 7.63113 1.19379 2 
44.898 28.382 7.84780 1.21552 2 
47.464 28.382 7.77619 0.99831 2 
50.029 28.382 7.81470 1.10936 2 
52.595 28.382 8.10609 1.25553 2 
55.160 28.382 8.04160 1.08621 2 
57.726 28.382 8.31282 1.04726 2 
60.292 28.382 8.13121 1.13945 2 
62.857 28.382 8.04483 0.95202 2 
65.423 28.382 8.31706 0.98339 2 
67.988 28.382 8.50017 0.98033 2 
70.554 28.382 8.34143 1.15029 2 
73.120 28.382 8.69448 0.90055 2 
75.685 28.382 8.34727 0.68102 2 
78.251 28.382 8.83124 0.76869 2 
80.816 28.382 8.71218 0.70922 2 
83.382 28.382 8.76708 0.67415 2 
85.948 28.382 8.82197 0.63909 2 
88.513 28.382 8.76543 0.43746 2 
91.079 28.382 8.90797 0.45913 2 
93.644 28.382 8.76731 0.28144 2 
96.210 28.382 8.81547 0.20138 2 
98.776 28.382 8.85956 0.26648 2 
101.341 28.382 8.83779 -0.00850 2 
103.907 28.382 8.69467 -0.00662 2 
106.472 28.382 8.79226 -0.04266 2 
109.038 28.382 8.86033 -0.27994 2 
111.603 28.382 8.80292 -0.16738 2 
114.169 28.382 8.65607 -0.45105 2 
116.735 28.382 9.07898 -0.43152 2 
119.300 28.382 0.00000 -0.00000 0 
-8.980 25.816 7.05940 0.03662 2 
-6.414 25.816 6.94247 0.28008 2 
-3.848 25.816 6.95824 0.36521 2 
-1.283 25.816 6.96617 0.37540 2 
1.283 25.816 6.89536 0.38964 2 
3.848 25.816 7.58750 0.76118 2 
6.414 25.816 0.00000 -0.00000 0 
8.980 25.816 0.00000 -0.00000 0 
11.545 25.816 0.00000 -0.00000 0 
14.111 25.816 0.00000 -0.00000 0 
16.676 25.816 3.76558 0.48323 2 
19.242 25.816 7.53115 0.96647 2 
21.808 25.816 7.24245 0.94308 2 
24.373 25.816 7.14346 0.98017 2 
26.939 25.816 7.20474 1.07736 2 
29.504 25.816 7.31643 0.98240 2 
32.070 25.816 7.42128 1.25752 2 
34.636 25.816 7.43095 1.20768 2 
37.201 25.816 7.59346 1.12762 2 
39.767 25.816 7.68905 1.08804 2 
42.332 25.816 7.73243 1.12704 2 
44.898 25.816 7.74406 1.22823 2 
47.464 25.816 7.71353 1.00227 2 
50.029 25.816 7.85092 1.11968 2 
52.595 25.816 7.94442 1.15429 2 
55.160 25.816 7.91678 1.13339 2 
57.726 25.816 8.17199 1.12549 2 
60.292 25.816 8.29391 1.19535 2 
62.857 25.816 8.52995 0.93025 2 
65.423 25.816 8.22162 1.09236 2 
67.988 25.816 8.41804 1.02185 2 
70.554 25.816 8.77419 0.93449 2 
73.120 25.816 8.57991 0.91079 2 
75.685 25.816 8.93159 0.71493 2 
78.251 25.816 8.61192 0.77366 2 
80.816 25.816 8.74722 0.92740 2 
83.382 25.816 0.00000 0.00000 0 
85.948 25.816 8.84281 0.55144 2 
88.513 25.816 9.00050 0.50510 2 
91.079 25.816 8.90197 0.35043 2 
93.644 25.816 9.00665 0.14405 2 
96.210 25.816 8.94336 0.19854 2 
98.776 25.816 8.76704 0.20752 2 
101.341 25.816 8.83166 0.24468 2 
103.907 25.816 8.69754 -0.15253 2 
106.472 25.816 8.98840 -0.05911 2 
109.038 25.816 9.00315 -0.17293 2 
111.603 25.816 8.82711 -0.45305 2 
114.169 25.816 8.79891 -0.30372 2 
116.735 25.816 9.07258 -0.41364 2 
119.300 25.816 0.00000 -0.00000 0 
-8.980 23.251 6.83788 0.21427 2 
-6.414 23.251 6.90437 0.12245 2 
-3.848 23.251 7.02296 0.27616 2 
-1.283 23.251 6.88795 0.39909 2 
1.283 23.251 6.81860 0.37989 2 
3.848 23.251 7.18091 0.59215 2 
6.414 23.251 0.00000 -0.00000 0 
8.980 23.251 0.00000 -0.00000 0 
11.545 23.251 0.00000 -0.00000 0 
14.111 23.251 0.00000 -0.00000 0 
16.676 23.251 3.83184 0.48537 2 
19.242 23.251 7.66367 0.97074 2 
21.808 23.251 6.92113 1.15895 2 
24.373 23.251 7.21831 0.90895 2 
26.939 23.251 7.15788 1.22578 2 
29.504 23.251 7.33125 1.23824 2 
32.070 23.251 7.29117 0.98947 2 
34.636 23.251 7.40464 1.26303 2 
37.201 23.251 7.37880 1.27702 2 
39.767 23.251 7.48476 1.26971 2 
42.332 23.251 7.52586 1.30608 2 
44.898 23.251 7.71146 1.32485 2 
47.464 23.251 7.82672 1.22469 2 
50.029 23.251 7.84755 1.15024 2 
52.595 23.251 7.78653 1.10384 2 
55.160 23.251 8.17368 1.07853 2 
57.726 23.251 8.22557 1.20051 2 
60.292 23.251 8.18904 1.18962 2 
62.857 23.251 8.39134 1.22228 2 
65.423 23.251 8.51864 1.04942 2 
67.988 23.251 7.95774 1.09771 2 
70.554 23.251 8.50080 1.05935 2 
73.120 23.251 8.41925 0.91958 2 
75.685 23.251 8.74624 1.09826 2 
78.251 23.251 9.02520 0.71886 2 
80.816 23.251 9.00586 0.86207 2 
83.382 23.251 0.00000 0.00000 0 
85.948 23.251 6.49616 0.42178 2 
88.513 23.251 9.25642 0.52644 2 
91.079 23.251 8.95692 0.35114 2 
93.644 23.251 8.91629 0.13003 2 
96.210 23.251 8.90399 0.05441 2 
98.776 23.251 8.80053 0.13468 2 
101.341 23.251 8.71298 0.17223 2 
103.907 23.251 9.06579 0.23054 2 
106.472 23.251 9.26641 0.17440 2 
109.038 23.251 9.21063 -0.20898 2 
111.603 23.251 8.96830 -0.56739 2 
114.169 23.251 8.76434 -0.70669 2 
116.735 23.251 8.67922 -0.25183 2 
119.300 23.251 0.00000 -0.00000 0 
-8.980 20.685 6.88837 -0.02615 2 
-6.414 20.685 6.93419 0.29943 2 
-3.848 20.685 6.71951 0.16660 2 
-1.283 20.685 6.87819 0.37251 2 
1.283 20.685 6.60000 0.28807 2 
3.848 20.685 7.16609 0.54972 2 
6.414 20.685 0.00000 -0.00000 0 
8.980 20.685 0.00000 -0.00000 0 
11.545 20.685 0.00000 -0.00000 0 
14.111 20.685 0.00000 -0.00000 0 
16.676 20.685 3.68981 0.59882 2 
19.242 20.685 7.37961 1.19763 2 
21.808 20.685 6.85635 0.96873 2 
24.373 20.685 6.97967 1.36693 2 
26.939 20.685 7.15114 1.08252 2 
29.504 20.685 7.32951 1.35341 2 
32.070 20.685 7.27386 1.33030 2 
34.636 20.685 7.30503 1.34879 2 
37.201 20.685 7.67472 1.30956 2 
39.767 20.685 7.47121 1.28787 2 
42.332 20.685 7.53266 1.47563 2 
44.898 20.685 7.83098 1.16252 2 
47.464 20.685 7.82888 1.32222 2 
50.029 20.685 7.81809 1.51245 2 
52.595 20.685 8.05823 1.27921 2 
55.160 20.685 7.84732 1.41912 2 
57.726 20.685 8.15159 1.23478 2 
60.292 20.685 8.33666 1.36514 2 
62.857 20.685 8.46192 0.95630 2 
65.423 20.685 6.56705 0.85203 2 
67.988 20.685 7.49743 1.17358 2 
70.554 20.685 8.98272 1.39491 2 
73.120 20.685 8.98451 1.17986 2 
75.685 20.685 9.27879 1.19873 2 
78.251 20.685 7.85738 0.86695 2 
80.816 20.685 10.08559 0.55137 2 
83.382 20.685 0.00000 0.00000 0 
85.948 20.685 0.00000 0.00000 0 
88.513 20.685 0.00000 0.00000 0 
91.079 20.685 9.53553 0.54934 2 
93.644 20.685 9.42712 0.52147 2 
96.210 20.685 8.27181 0.11924 2 
98.776 20.685 8.33967 -0.17855 2 
101.341 20.685 8.67120 0.50184 2 
103.907 20.685 8.99921 0.83142 2 
106.472 20.685 9.30713 0.04751 2 
109.038 20.685 9.61505 -0.73639 2 
111.603 20.685 9.34578 -0.89846 2 
114.169 20.685 8.54300 -0.80069 2 
116.735 20.685 8.96742 -0.58198 2 
119.300 20.685 0.00000 -0.00000 0 
-8.980 18.120 6.72718 -0.02176 2 
-6.414 18.120 6.93404 0.04340 2 
-3.848 18.120 6.76551 0.12464 2 
-1.283 18.120 6.73171 0.11411 2 
1.283 18.120 6.82437 0.35872 2 
3.848 18.120 7.02947 0.50079 2 
6.414 18.120 0.00000 -0.00000 0 
8.980 18.120 0.00000 -0.00000 0 
11.545 18.120 0.00000 -0.00000 0 
14.111 18.120 0.00000 -0.00000 0 
16.676 18.120 3.64920 0.64146 2 
19.242 18.120 7.29841 1.28291 2 
21.808 18.120 6.96980 1.12359 2 
24.373 18.120 7.10556 1.17026 2 
26.939 18.120 7.16658 1.39631 2 
29.504 18.120 7.12543 1.26881 2 
32.070 18.120 7.19429 1.51715 2 
34.636 18.120 7.27769 1.49780 2 
37.201 18.120 7.55523 1.43272 2 
39.767 18.120 7.52655 1.53830 2 
42.332 18.120 7.63967 1.33444 2 
44.898 18.120 7.73986 1.47589 2 
47.464 18.120 7.84293 1.59344 2 
50.029 18.120 7.81278 1.46405 2 
52.595 18.120 8.06872 1.49140 2 
55.160 18.120 8.06302 1.36108 2 
57.726 18.120 8.65194 1.29649 2 
60.292 18.120 8.26417 1.33707 2 
62.857 18.120 8.75330 1.34612 2 
65.423 18.120 4.61547 0.65464 2 
67.988 18.120 0.00000 -0.00000 0 
70.554 18.120 0.00000 -0.00000 0 
73.120 18.120 0.00000 -0.00000 0 
75.685 18.120 0.00000 -0.00000 0 
78.251 18.120 0.00000 -0.00000 0 
80.816 18.120 0.00000 -0.00000 0 
83.382 18.120 0.00000 -0.00000 0 
85.948 18.120 -1.13380 -0.14502 2 
88.513 18.120 1.02654 0.11298 2 
91.079 18.120 3.18688 0.37098 2 
93.644 18.120 5.88217 0.53365 2 
96.210 18.120 7.63962 0.18407 2 
98.776 18.120 5.87130 0.11361 2 
101.341 18.120 7.00665 0.34087 2 
103.907 18.120 5.71622 1.56622 2 
106.472 18.120 7.10888 0.31096 2 
109.038 18.120 9.34223 -1.43473 2 
111.603 18.120 8.45369 -1.60989 2 
114.169 18.120 8.66555 -1.45289 2 
116.735 18.120 7.88057 -0.64027 2 
119.300 18.120 0.00000 -0.00000 0 
-8.980 15.554 6.79161 0.12324 2 
-6.414 15.554 6.60087 -0.08209 2 
-3.848 15.554 6.68387 0.07386 2 
-1.283 15.554 6.66380 0.17742 2 
1.283 15.554 6.48452 0.31666 2 
3.848 15.554 6.22119 0.26012 2 
6.414 15.554 0.00000 -0.00000 0 
8.980 15.554 0.00000 -0.00000 0 
11.545 15.554 0.00000 -0.00000 0 
14.111 15.554 0.00000 -0.00000 0 
16.676 15.554 3.44718 0.61038 2 
19.242 15.554 6.89435 1.22075 2 
21.808 15.554 6.76367 1.32050 2 
24.373 15.554 6.93333 1.41220 2 
26.939 15.554 7.08267 1.45925 2 
29.504 15.554 7.11382 1.51970 2 
32.070 15.554 7.24345 1.46407 2 
34.636 15.554 7.39520 1.44738 2 
37.201 15.554 7.27718 1.70450 2 
39.767 15.554 7.68661 1.39361 2 
42.332 15.554 8.14719 1.62310 2 
44.898 15.554 8.03100 1.29459 2 
47.464 15.554 8.00756 1.49488 2 
50.029 15.554 8.16809 1.52212 2 
52.595 15.554 8.53864 1.39389 2 
55.160 15.554 0.00000 -0.00000 0 
57.726 15.554 0.00000 -0.00000 0 
60.292 15.554 0.00000 -0.00000 0 
62.857 15.554 0.00000 -0.00000 0 
65.423 15.554 0.00000 -0.00000 0 
67.988 15.554 0.00000 -0.00000 0 
70.554 15.554 0.00000 -0.00000 0 
73.120 15.554 0.00000 -0.00000 0 
75.685 15.554 0.00000 -0.00000 0 
78.251 15.554 0.00000 -0.00000 0 
80.816 15.554 -1.70764 -0.16697 2 
83.382 15.554 1.14524 -0.67288 2 
85.948 15.554 -1.37589 0.64992 2 
88.513 15.554 -2.26883 0.42128 2 
91.079 15.554 -3.16177 0.19263 2 
93.644 15.554 2.33721 0.54583 2 
96.210 15.554 2.73926 0.20335 2 
98.776 15.554 3.40293 0.40577 2 
101.341 15.554 3.77754 -0.08283 2 
103.907 15.554 2.43323 2.30102 2 
106.472 15.554 2.98518 1.53620 2 
109.038 15.554 6.17915 -1.27722 2 
111.603 15.554 6.10872 -0.87159 2 
114.169 15.554 5.56329 -0.87379 2 
116.735 15.554 6.60872 -0.13328 2 
119.300 15.554 0.00000 -0.00000 0 
-8.980 12.988 6.85820 -0.15175 2 
-6.414 12.988 6.68836 -0.04255 2 
-3.848 12.988 6.57409 0.01089 2 
-1.283 12.988 6.37585 0.12562 2 
1.283 12.988 6.39901 0.39735 2 
3.848 12.988 6.35783 0.26499 2 
6.414 12.988 0.00000 -0.00000 0 
8.980 12.988 0.00000 -0.00000 0 
11.545 12.988 0.00000 -0.00000 0 
14.111 12.988 0.00000 -0.00000 0 
16.676 12.988 3.54391 0.72160 2 
19.242 12.988 7.08783 1.44319 2 
21.808 12.988 6.67904 1.35771 2 
24.373 12.988 6.91424 1.57728 2 
26.939 12.988 6.88299 1.62003 2 
29.504 12.988 7.20720 1.64479 2 
32.070 12.988 7.85441 1.56571 2 
34.636 12.988 7.45428 2.03354 2 
37.201 12.988 7.88424 1.98719 2 
39.767 12.988 3.84330 0.69680 2 
42.332 12.988 0.00000 -0.00000 0 
44.898 12.988 0.00000 -0.00000 0 
47.464 12.988 0.00000 -0.00000 0 
50.029 12.988 0.00000 -0.00000 0 
52.595 12.988 0.00000 -0.00000 0 
55.160 12.988 0.00000 -0.00000 0 
57.726 12.988 0.00000 -0.00000 0 
60.292 12.988 0.00000 -0.00000 0 
62.857 12.988 0.00000 -0.00000 0 
65.423 12.988 0.00000 -0.00000 0 
67.988 12.988 0.00000 -0.00000 0 
70.554 12.988 0.00000 -0.00000 0 
73.120 12.988 0.00000 -0.00000 0 
75.685 12.988 0.15029 0.08253 2 
78.251 12.988 -0.65066 -0.10669 2 
80.816 12.988 -3.41528 -0.33394 2 
83.382 12.988 -1.99100 -1.08545 2 
85.948 12.988 -2.39966 0.29691 2 
88.513 12.988 -2.38290 1.21162 2 
91.079 12.988 -3.03179 0.78351 2 
93.644 12.988 -3.43664 0.15594 2 
96.210 12.988 -2.16110 0.22263 2 
98.776 12.988 -0.36232 1.37913 2 
101.341 12.988 1.74415 2.27617 2 
103.907 12.988 2.36336 2.87219 2 
106.472 12.988 4.63643 -0.16786 2 
109.038 12.988 4.32291 -2.13964 2 
111.603 12.988 3.76375 -0.13328 2 
114.169 12.988 3.23823 1.08351 2 
116.735 12.988 6.33743 2.19326 2 
119.300 12.988 0.00000 -0.00000 0 
-8.980 10.423 6.76029 -0.19759 2 
-6.414 10.423 6.64950 -0.03956 2 
-3.848 10.423 6.42287 -0.09379 2 
-1.283 10.423 6.46669 -0.06486 2 
1.283 10.423 6.18979 0.05642 2 
3.848 10.423 6.49447 0.26987 2 
6.414 10.423 3.24724 0.13493 2 
8.980 10.423 0.00000 -0.00000 0 
11.545 10.423 0.00000 -0.00000 0 
14.111 10.423 0.00000 -0.00000 0 
16.676 10.423 2.36261 0.48106 2 
19.242 10.423 4.72522 0.96213 2 
21.808 10.423 6.98212 1.61318 2 
24.373 10.423 7.18501 1.74775 2 
26.939 10.423 7.01143 1.93724 2 
29.504 10.423 3.60360 0.82240 2 
32.070 10.423 0.00000 -0.00000 0 
34.636 10.423 0.00000 -0.00000 0 
37.201 10.423 0.00000 -0.00000 0 
39.767 10.423 0.00000 -0.00000 0 
42.332 10.423 0.00000 -0.00000 0 
44.898 10.423 0.00000 -0.00000 0 
47.464 10.423 0.00000 -0.00000 0 
50.029 10.423 0.00000 -0.00000 0 
52.595 10.423 0.00000 -0.00000 0 
55.160 10.423 0.00000 -0.00000 0 
57.726 10.423 0.00000 -0.00000 0 
60.292 10.423 0.00000 -0.00000 0 
62.857 10.423 0.00000 -0.00000 0 
65.423 10.423 0.00000 -0.00000 0 
67.988 10.423 -0.82531 -0.36471 2 
70.554 10.423 -3.25009 -1.11253 2 
73.120 10.423 -2.29349 -0.80286 2 
75.685 10.423 -2.27761 -1.59310 2 
78.251 10.423 -3.87166 -0.73392 2 
80.816 10.423 -3.65488 -1.38116 2 
83.382 10.423 -3.53915 -0.71864 2 
85.948 10.423 -3.42342 -0.05611 2 
88.513 10.423 -2.49696 2.00196 2 
91.079 10.423 -3.13156 1.80940 2 
93.644 10.423 -3.76615 1.61683 2 
96.210 10.423 -2.19787 0.72995 2 
98.776 10.423 -0.16858 2.27418 2 
101.341 10.423 -0.28924 4.63518 2 
103.907 10.423 0.91093 4.03352 2 
106.472 10.423 0.32865 -0.76681 2 
109.038 10.423 3.14656 -1.31461 2 
111.603 10.423 0.88817 1.95682 2 
114.169 10.423 1.35310 -0.30138 2 
116.735 10.423 1.41854 0.61133 2 
119.300 10.423 0.79795 2.94928 2 
-8.980 7.857 6.66562 -0.20285 2 
-6.414 7.857 6.46702 -0.35178 2 
-3.848 7.857 6.41234 -0.19267 2 
-1.283 7.857 6.22305 0.02727 2 
1.283 7.857 6.06061 -0.00879 2 
3.848 7.857 6.14745 0.17832 2 
6.414 7.857 3.07373 0.08916 2 
8.980 7.857 0.00000 -0.00000 0 
11.545 7.857 0.00000 -0.00000 0 
14.111 7.857 0.00000 -0.00000 2 
16.676 7.857 1.57507 0.32071 2 
19.242 7.857 2.36261 0.48106 2 
21.808 7.857 0.00000 -0.00000 0 
24.373 7.857 0.00000 -0.00000 0 
26.939 7.857 0.00000 -0.00000 0 
29.504 7.857 0.00000 -0.00000 0 
32.070 7.857 0.00000 -0.00000 0 
34.636 7.857 0.00000 -0.00000 0 
37.201 7.857 0.00000 -0.00000 0 
39.767 7.857 0.00000 -0.00000 0 
42.332 7.857 0.00000 -0.00000 0 
44.898 7.857 0.00000 -0.00000 0 
47.464 7.857 0.00000 -0.00000 0 
50.029 7.857 0.00000 -0.00000 0 
52.595 7.857 0.00000 -0.00000 0 
55.160 7.857 0.00000 -0.00000 0 
57.726 7.857 0.00000 -0.00000 0 
60.292 7.857 -0.22762 -0.11619 2 
62.857 7.857 -0.79123 -0.34805 2 
65.423 7.857 -1.71295 -0.76220 2 
67.988 7.857 -1.65061 -0.72941 2 
70.554 7.857 -2.98919 -1.29530 2 
73.120 7.857 -2.44611 -1.50249 2 
75.685 7.857 -2.56362 -1.46612 2 
78.251 7.857 -3.33227 -0.31462 2 
80.816 7.857 -3.75783 -1.40062 2 
83.382 7.857 -2.33331 0.96830 2 
85.948 7.857 -1.62597 0.60495 2 
88.513 7.857 -1.56658 1.34739 2 
91.079 7.857 -1.27483 1.84861 2 
93.644 7.857 -1.95523 1.10908 2 
96.210 7.857 -2.23465 1.23727 2 
98.776 7.857 0.02517 3.16924 2 
101.341 7.857 -0.05051 4.56009 2 
103.907 7.857 0.80379 3.81746 2 
106.472 7.857 0.98277 -0.10282 2 
109.038 7.857 1.97021 -0.48957 2 
111.603 7.857 1.67468 1.79649 2 
114.169 7.857 2.45862 -0.18240 2 
116.735 7.857 0.41064 1.81729 2 
119.300 7.857 -0.21788 3.94251 2 
-8.980 5.292 6.78489 -0.45527 2 
-6.414 5.292 6.45783 -0.50624 2 
-3.848 5.292 6.32637 -0.46526 2 
-1.283 5.292 6.12056 -0.33639 2 
1.283 5.292 6.06422 -0.23645 2 
3.848 5.292 6.54090 0.12107 2 
6.414 5.292 1.53686 0.04458 2 
8.980 5.292 0.00000 -0.00000 0 
11.545 5.292 0.00000 -0.00000 0 
14.111 5.292 0.00000 -0.00000 0 
16.676 5.292 0.00000 -0.00000 0 
19.242 5.292 0.00000 -0.00000 0 
21.808 5.292 0.00000 -0.00000 0 
24.373 5.292 0.00000 -0.00000 0 
26.939 5.292 0.00000 -0.00000 0 
29.504 5.292 0.00000 -0.00000 0 
32.070 5.292 0.00000 -0.00000 0 
34.636 5.292 0.00000 -0.00000 0 
37.201 5.292 0.00000 -0.00000 0 
39.767 5.292 0.00000 -0.00000 0 
42.332 5.292 0.00000 -0.00000 0 
44.898 5.292 0.00000 -0.00000 0 
47.464 5.292 0.00000 -0.00000 0 
50.029 5.292 0.00000 -0.00000 0 
52.595 5.292 -0.03278 0.10006 2 
55.160 5.292 -0.06555 0.20012 2 
57.726 5.292 0.13272 0.18619 2 
60.292 5.292 -0.45523 -0.23238 2 
62.857 5.292 -1.58247 -0.69611 2 
65.423 5.292 -2.51776 -1.97870 2 
67.988 5.292 -2.32883 -1.26816 2 
70.554 5.292 -2.72830 -1.47807 2 
73.120 5.292 -2.59873 -2.20211 2 
75.685 5.292 -2.84962 -1.33915 2 
78.251 5.292 -2.79287 0.10469 2 
80.816 5.292 -2.73613 1.54852 2 
83.382 5.292 -1.21374 0.61926 2 
85.948 5.292 0.17148 1.26602 2 
88.513 5.292 -0.66533 1.33640 2 
91.079 5.292 0.44199 1.70666 2 
93.644 5.292 0.68878 1.19447 2 
96.210 5.292 1.84404 2.44043 2 
98.776 5.292 0.09856 2.84563 2 
101.341 5.292 1.61156 3.27618 2 
103.907 5.292 0.69665 3.60139 2 
106.472 5.292 0.38776 1.96057 2 
109.038 5.292 1.43508 3.64011 2 
111.603 5.292 2.46118 1.63616 2 
114.169 5.292 1.00359 1.06181 2 
116.735 5.292 -0.59726 3.02324 2 
119.300 5.292 -0.40728 2.90621 2 
-8.980 2.726 6.52397 -0.62016 2 
-6.414 2.726 6.52610 -0.49918 2 
-3.848 2.726 6.21104 -0.62419 2 
-1.283 2.726 6.08314 -0.56095 2 
1.283 2.726 6.00399 -0.65296 2 
3.848 2.726 3.27045 0.06053 2 
6.414 2.726 0.00000 -0.00000 0 
8.980 2.726 0.00000 -0.00000 0 
11.545 2.726 0.00000 -0.00000 0 
14.111 2.726 0.00000 -0.00000 0 
16.676 2.726 0.00000 -0.00000 0 
19.242 2.726 0.00000 -0.00000 0 
21.808 2.726 0.00000 -0.00000 0 
24.373 2.726 0.00000 -0.00000 0 
26.939 2.726 0.00000 -0.00000 0 
29.504 2.726 0.00000 -0.00000 0 
32.070 2.726 0.00000 -0.00000 0 
34.636 2.726 0.00000 -0.00000 0 
37.201 2.726 0.00000 -0.00000 0 
39.767 2.726 0.00000 -0.00000 0 
42.332 2.726 0.00000 -0.00000 0 
44.898 2.726 0.00000 -0.00000 0 
47.464 2.726 -0.31798 0.01043 2 
50.029 2.726 -0.07100 -0.11416 2 
52.595 2.726 0.16176 0.02197 2 
55.160 2.726 0.39451 0.15810 2 
57.726 2.726 -1.29788 -0.93640 2 
60.292 2.726 -1.10804 -1.68997 2 
62.857 2.726 -2.06154 -1.60604 2 
65.423 2.726 -2.27720 -1.60746 2 
67.988 2.726 -3.00705 -1.80691 2 
70.554 2.726 -2.88197 -1.58389 2 
73.120 2.726 -2.04332 -1.84206 2 
75.685 2.726 -2.06789 -0.88474 2 
78.251 2.726 -2.20331 -0.69145 2 
80.816 2.726 -2.50888 1.21941 2 
83.382 2.726 -0.09417 0.27022 2 
85.948 2.726 -0.22536 1.59561 2 
88.513 2.726 -0.16643 1.96979 2 
91.079 2.726 0.87555 2.06821 2 
93.644 2.726 0.33735 1.52152 2 
96.210 2.726 1.42363 1.75330 2 
98.776 2.726 0.17196 2.52203 2 
101.341 2.726 0.25325 4.25718 2 
103.907 2.726 0.49544 4.26680 2 
106.472 2.726 -0.20725 4.02395 2 
109.038 2.726 0.24436 2.49696 2 
111.603 2.726 1.09732 1.68903 2 
114.169 2.726 -0.45143 2.30602 2 
116.735 2.726 -0.91150 2.94158 2 
119.300 2.726 -0.82197 3.47719 2 
-8.980 0.160 6.64024 -0.78192 2 
-6.414 0.160 6.68670 -0.57143 2 
-3.848 0.160 6.29755 -0.82638 2 
-1.283 0.160 6.19011 -0.89106 2 
1.283 0.160 6.79617 -0.96240 2 
3.848 0.160 0.00000 -0.00000 0 
6.414 0.160 0.00000 -0.00000 0 
8.980 0.160 0.00000 -0.00000 0 
11.545 0.160 0.00000 -0.00000 0 
14.111 0.160 0.00000 -0.00000 0 
16.676 0.160 0.00000 -0.00000 0 
19.242 0.160 0.00000 -0.00000 0 
21.808 0.160 0.00000 -0.00000 0 
24.373 0.160 0.00000 -0.00000 0 
26.939 0.160 0.00000 -0.00000 0 
29.504 0.160 0.00000 -0.00000 0 
32.070 0.160 0.00000 -0.00000 0 
34.636 0.160 0.00000 -0.00000 0 
37.201 0.160 0.00000 -0.00000 0 
39.767 0.160 -0.22513 -0.11983 2 
42.332 0.160 -0.24047 -0.26745 2 
44.898 0.160 -0.62699 -0.21880 2 
47.464 0.160 -0.63596 0.02085 2 
50.029 0.160 -0.44550 -0.22434 2 
52.595 0.160 -1.53330 -0.19675 2 
55.160 0.160 -1.17763 -1.37000 2 
57.726 0.160 -1.36877 -1.66542 2 
60.292 0.160 -1.59290 -1.64333 2 
62.857 0.160 -1.42275 -1.86475 2 
65.423 0.160 -1.31119 -1.79144 2 
67.988 0.160 -2.08363 -1.94408 2 
70.554 0.160 -2.85607 -2.09672 2 
73.120 0.160 -1.48791 -1.48201 2 
75.685 0.160 -1.12272 -1.08855 2 
78.251 0.160 -0.67390 -0.48304 2 
80.816 0.160 -1.09749 0.11283 2 
83.382 0.160 0.25364 0.12945 2 
85.948 0.160 0.61157 0.97547 2 
88.513 0.160 -0.25191 1.90597 2 
91.079 0.160 -0.87887 1.65616 2 
93.644 0.160 -0.92799 2.24732 2 
96.210 0.160 0.35180 1.62582 2 
98.776 0.160 1.14885 3.39133 2 
101.341 0.160 1.39452 3.79193 2 
103.907 0.160 1.01819 4.21620 2 
106.472 0.160 1.73563 3.48916 2 
109.038 0.160 0.58264 2.25063 2 
111.603 0.160 -0.26653 1.74191 2 
114.169 0.160 -1.11290 2.52046 2 
116.735 0.160 -1.22574 2.85992 2 
119.300 0.160 -0.37645 2.44893 2 
-8.980 -2.405 6.91900 -0.84989 2 
-6.414 -2.405 6.53890 -0.81938 2 
-3.848 -2.405 6.43452 -0.94098 2 
-1.283 -2.405 6.41179 -0.80167 2 
1.283 -2.405 0.00000 -0.00000 0 
3.848 -2.405 0.00000 -0.00000 0 
6.414 -2.405 0.00000 -0.00000 0 
8.980 -2.405 0.00000 -0.00000 0 
11.545 -2.405 0.00000 -0.00000 0 
14.111 -2.405 0.00000 -0.00000 0 
16.676 -2.405 0.00000 -0.00000 0 
19.242 -2.405 0.00000 -0.00000 0 
21.808 -2.405 0.00000 -0.00000 0 
24.373 -2.405 0.00000 -0.00000 0 
26.939 -2.405 0.00000 -0.00000 0 
29.504 -2.405 0.00000 -0.00000 0 
32.070 -2.405 -0.17757 -0.11367 2 
34.636 -2.405 -0.35514 -0.22733 2 
37.201 -2.405 -0.24734 -0.17982 2 
39.767 -2.405 -1.02083 -0.23952 2 
42.332 -2.405 -1.06293 -0.33692 2 
44.898 -2.405 -1.38952 -0.43757 2 
47.464 -2.405 -0.95476 -0.60160 2 
50.029 -2.405 -0.89344 -1.03997 2 
52.595 -2.405 -1.13863 -0.94867 2 
55.160 -2.405 -1.53582 -0.79471 2 
57.726 -2.405 -2.08153 -1.85079 2 
60.292 -2.405 -1.28933 -2.08903 2 