TITLE = "B00060"
VARIABLES = "X [mm]", "Y [mm]", "Vx [m/s]", "Vy [m/s]", "Flag"
ZONE T="Frame 1", I=51, J=39, F=POINT
-8.980 41.210 7.15147 0.28022 2 
-6.414 41.210 7.29731 0.41263 2 
-3.848 41.210 7.19866 0.40715 2 
-1.283 41.210 7.18397 0.46238 2 
1.283 41.210 7.40178 0.45915 2 
3.848 41.210 0.00000 -0.00000 0 
6.414 41.210 0.00000 -0.00000 0 
8.980 41.210 0.00000 -0.00000 0 
11.545 41.210 0.00000 -0.00000 0 
14.111 41.210 0.00000 -0.00000 0 
16.676 41.210 0.00000 -0.00000 0 
19.242 41.210 4.03349 0.41683 2 
21.808 41.210 8.06698 0.83366 2 
24.373 41.210 7.24369 0.79768 2 
26.939 41.210 7.48017 0.85475 2 
29.504 41.210 7.46631 0.68948 2 
32.070 41.210 7.44764 0.81209 2 
34.636 41.210 7.80328 0.82583 2 
37.201 41.210 7.58343 0.83638 2 
39.767 41.210 7.65896 0.89077 2 
42.332 41.210 7.74522 0.97570 2 
44.898 41.210 7.88269 0.97733 2 
47.464 41.210 8.02016 0.97896 2 
50.029 41.210 7.99271 0.88813 2 
52.595 41.210 7.96526 0.79729 2 
55.160 41.210 7.94621 0.83982 2 
57.726 41.210 7.92716 0.88234 2 
60.292 41.210 8.22055 0.58718 2 
62.857 41.210 8.24355 0.68613 2 
65.423 41.210 8.27623 0.54588 2 
67.988 41.210 8.23826 0.51459 2 
70.554 41.210 8.46110 0.90086 2 
73.120 41.210 8.51630 0.71297 2 
75.685 41.210 8.65138 0.50795 2 
78.251 41.210 8.58467 0.47525 2 
80.816 41.210 0.00000 0.00000 0 
83.382 41.210 8.52559 0.45134 2 
85.948 41.210 8.53322 0.46013 2 
88.513 41.210 8.63182 0.14999 2 
91.079 41.210 8.61781 0.23160 2 
93.644 41.210 8.60380 0.31322 2 
96.210 41.210 8.60428 0.00452 2 
98.776 41.210 8.66255 0.16292 2 
101.341 41.210 8.59280 0.15078 2 
103.907 41.210 8.68124 0.09828 2 
106.472 41.210 8.52765 -0.03840 2 
109.038 41.210 8.57264 -0.11130 2 
111.603 41.210 8.61763 -0.18420 2 
114.169 41.210 8.42545 -0.14281 2 
116.735 41.210 8.74992 -0.33483 2 
119.300 41.210 0.00000 -0.00000 0 
-8.980 38.644 7.03206 0.33194 2 
-6.414 38.644 7.24874 0.39549 2 
-3.848 38.644 7.29232 0.26787 2 
-1.283 38.644 7.21039 0.32698 2 
1.283 38.644 7.46488 0.49950 2 
3.848 38.644 0.00000 -0.00000 0 
6.414 38.644 0.00000 -0.00000 0 
8.980 38.644 0.00000 -0.00000 0 
11.545 38.644 0.00000 -0.00000 0 
14.111 38.644 0.00000 -0.00000 0 
16.676 38.644 0.00000 -0.00000 0 
19.242 38.644 0.69692 -0.30270 2 
21.808 38.644 7.76128 0.78915 2 
24.373 38.644 7.30203 0.69068 2 
26.939 38.644 7.46851 0.68170 2 
29.504 38.644 7.50183 0.96282 2 
32.070 38.644 7.52470 0.86156 2 
34.636 38.644 7.67014 0.85059 2 
37.201 38.644 7.57619 0.82671 2 
39.767 38.644 7.59678 0.77205 2 
42.332 38.644 7.64082 0.93341 2 
44.898 38.644 7.80554 0.86014 2 
47.464 38.644 7.77948 0.76734 2 
50.029 38.644 8.06099 0.90831 2 
52.595 38.644 8.14212 0.95955 2 
55.160 38.644 7.81821 0.88479 2 
57.726 38.644 8.12452 0.78661 2 
60.292 38.644 8.18811 0.97795 2 
62.857 38.644 8.40999 0.81969 2 
65.423 38.644 8.61335 0.87584 2 
67.988 38.644 8.16731 0.79598 2 
70.554 38.644 8.25823 0.52979 2 
73.120 38.644 8.44789 0.64523 2 
75.685 38.644 8.63317 0.60847 2 
78.251 38.644 8.60650 0.53301 2 
80.816 38.644 0.00000 0.00000 0 
83.382 38.644 8.57661 0.48741 2 
85.948 38.644 8.75362 0.38820 2 
88.513 38.644 8.71216 0.29801 2 
91.079 38.644 8.70968 0.26231 2 
93.644 38.644 8.71225 0.10972 2 
96.210 38.644 8.49800 0.00047 2 
98.776 38.644 8.67486 -0.04726 2 
101.341 38.644 8.50048 -0.04967 2 
103.907 38.644 8.55396 -0.08295 2 
106.472 38.644 8.36602 -0.26811 2 
109.038 38.644 8.50325 -0.17741 2 
111.603 38.644 8.52900 -0.33097 2 
114.169 38.644 8.51549 -0.12492 2 
116.735 38.644 8.98940 -0.37401 2 
119.300 38.644 0.00000 -0.00000 0 
-8.980 36.079 6.94672 0.16018 2 
-6.414 36.079 7.08653 0.44022 2 
-3.848 36.079 7.22589 0.27299 2 
-1.283 36.079 7.06640 0.47636 2 
1.283 36.079 7.36801 0.47110 2 
3.848 36.079 0.00000 -0.00000 0 
6.414 36.079 0.00000 -0.00000 0 
8.980 36.079 0.00000 -0.00000 0 
11.545 36.079 0.00000 -0.00000 0 
14.111 36.079 0.00000 -0.00000 0 
16.676 36.079 0.00000 -0.00000 0 
19.242 36.079 4.09023 0.54723 2 
21.808 36.079 7.72398 0.83799 2 
24.373 36.079 7.31406 0.78675 2 
26.939 36.079 7.40623 0.76445 2 
29.504 36.079 7.37532 0.83647 2 
32.070 36.079 7.53484 0.84085 2 
34.636 36.079 7.54395 0.91052 2 
37.201 36.079 7.67621 0.87628 2 
39.767 36.079 7.73918 0.96044 2 
42.332 36.079 7.69954 0.99168 2 
44.898 36.079 7.87335 0.82543 2 
47.464 36.079 7.77048 0.96396 2 
50.029 36.079 8.08026 0.90904 2 
52.595 36.079 8.05547 0.91628 2 
55.160 36.079 8.36262 0.97802 2 
57.726 36.079 8.17128 0.73577 2 
60.292 36.079 8.36537 1.06264 2 
62.857 36.079 8.19840 0.78174 2 
65.423 36.079 8.54517 0.88741 2 
67.988 36.079 8.43520 0.71116 2 
70.554 36.079 8.34542 0.66307 2 
73.120 36.079 8.68842 0.57115 2 
75.685 36.079 8.68812 0.87282 2 
78.251 36.079 8.57772 0.60777 2 
80.816 36.079 0.00000 0.00000 0 
83.382 36.079 8.62762 0.52348 2 
85.948 36.079 8.68304 0.41925 2 
88.513 36.079 8.79603 0.30094 2 
91.079 36.079 8.84452 0.32397 2 
93.644 36.079 8.73491 0.03992 2 
96.210 36.079 8.63342 0.02559 2 
98.776 36.079 8.91985 -0.08845 2 
101.341 36.079 8.56758 0.20964 2 
103.907 36.079 8.45713 -0.06034 2 
106.472 36.079 8.63986 -0.23138 2 
109.038 36.079 8.55986 -0.13536 2 
111.603 36.079 8.55925 0.13375 2 
114.169 36.079 8.56495 -0.28982 2 
116.735 36.079 8.66844 -0.11108 2 
119.300 36.079 0.00000 -0.00000 0 
-8.980 33.513 7.30034 0.26133 2 
-6.414 33.513 7.13003 0.38587 2 
-3.848 33.513 7.17906 0.45291 2 
-1.283 33.513 7.06882 0.33312 2 
1.283 33.513 7.40307 0.51036 2 
3.848 33.513 0.00000 -0.00000 0 
6.414 33.513 0.00000 -0.00000 0 
8.980 33.513 0.00000 -0.00000 0 
11.545 33.513 0.00000 -0.00000 0 
14.111 33.513 0.00000 -0.00000 0 
16.676 33.513 0.00000 -0.00000 0 
19.242 33.513 3.84334 0.44341 2 
21.808 33.513 7.68668 0.88683 2 
24.373 33.513 7.16149 0.91022 2 
26.939 33.513 7.46361 1.01988 2 
29.504 33.513 7.47844 0.98380 2 
32.070 33.513 7.61514 0.85422 2 
34.636 33.513 7.40378 0.84097 2 
37.201 33.513 7.60845 1.02632 2 
39.767 33.513 7.66315 1.10653 2 
42.332 33.513 7.75227 1.02637 2 
44.898 33.513 7.67245 1.03956 2 
47.464 33.513 7.77569 0.96749 2 
50.029 33.513 7.97543 0.97633 2 
52.595 33.513 8.07900 0.94440 2 
55.160 33.513 8.13364 0.91626 2 
57.726 33.513 8.36930 0.89952 2 
60.292 33.513 8.26551 1.12191 2 
62.857 33.513 8.50163 0.88178 2 
65.423 33.513 8.35796 0.76973 2 
67.988 33.513 8.62549 0.80007 2 
70.554 33.513 8.64963 0.98205 2 
73.120 33.513 8.48838 0.52652 2 
75.685 33.513 8.71509 0.66202 2 
78.251 33.513 8.60433 0.56733 2 
80.816 33.513 0.00000 0.00000 0 
83.382 33.513 8.70043 0.50113 2 
85.948 33.513 8.77890 0.51777 2 
88.513 33.513 8.76624 0.22726 2 
91.079 33.513 8.72634 0.39985 2 
93.644 33.513 8.82199 -0.04228 2 
96.210 33.513 8.66590 -0.07349 2 
98.776 33.513 8.74975 -0.07301 2 
101.341 33.513 8.62184 -0.20032 2 
103.907 33.513 8.71595 -0.04566 2 
106.472 33.513 8.51661 -0.32689 2 
109.038 33.513 8.45844 -0.22449 2 
111.603 33.513 8.57502 -0.02891 2 
114.169 33.513 8.75578 -0.15942 2 
116.735 33.513 8.98742 -0.25364 2 
119.300 33.513 0.00000 -0.00000 0 
-8.980 30.948 7.07233 0.35365 2 
-6.414 30.948 6.97613 0.36236 2 
-3.848 30.948 7.16331 0.44292 2 
-1.283 30.948 7.13961 0.36197 2 
1.283 30.948 7.50477 0.52280 2 
3.848 30.948 0.00000 -0.00000 0 
6.414 30.948 0.00000 -0.00000 0 
8.980 30.948 0.00000 -0.00000 0 
11.545 30.948 0.00000 -0.00000 0 
14.111 30.948 0.00000 -0.00000 0 
16.676 30.948 0.00000 -0.00000 0 
19.242 30.948 3.79922 0.49903 2 
21.808 30.948 7.59845 0.99807 2 
24.373 30.948 7.31049 0.96238 2 
26.939 30.948 7.31970 1.05848 2 
29.504 30.948 7.39388 0.90854 2 
32.070 30.948 7.37391 0.91240 2 
34.636 30.948 7.67541 0.96124 2 
37.201 30.948 7.49417 1.09580 2 
39.767 30.948 7.71466 1.02418 2 
42.332 30.948 7.93704 0.92316 2 
44.898 30.948 8.00721 1.03834 2 
47.464 30.948 7.98320 1.20657 2 
50.029 30.948 7.93980 1.04444 2 
52.595 30.948 8.03809 1.03669 2 
55.160 30.948 8.22733 0.89747 2 
57.726 30.948 8.15573 1.16927 2 
60.292 30.948 8.41417 0.76469 2 
62.857 30.948 8.16753 0.96289 2 
65.423 30.948 8.47201 0.89314 2 
67.988 30.948 8.38786 0.77632 2 
70.554 30.948 8.43174 0.87732 2 
73.120 30.948 8.66498 0.88141 2 
75.685 30.948 8.54414 0.72917 2 
78.251 30.948 8.81394 0.80084 2 
80.816 30.948 0.00000 0.00000 0 
83.382 30.948 8.72510 0.54297 2 
85.948 30.948 8.69649 0.59385 2 
88.513 30.948 8.90612 0.17322 2 
91.079 30.948 8.97124 0.14692 2 
93.644 30.948 8.66942 -0.12434 2 
96.210 30.948 8.90776 -0.11613 2 
98.776 30.948 8.60894 -0.22306 2 
101.341 30.948 8.67831 -0.19442 2 
103.907 30.948 8.52861 0.02112 2 
106.472 30.948 8.60575 -0.20198 2 
109.038 30.948 8.47444 -0.15214 2 
111.603 30.948 8.36697 0.01602 2 
114.169 30.948 8.60134 -0.04924 2 
116.735 30.948 8.90865 0.03726 2 
119.300 30.948 0.00000 -0.00000 0 
-8.980 28.382 7.14784 0.21380 2 
-6.414 28.382 7.08597 0.22757 2 
-3.848 28.382 7.01243 0.39999 2 
-1.283 28.382 6.95057 0.47268 2 
1.283 28.382 7.60647 0.53523 2 
3.848 28.382 3.91465 0.28131 2 
6.414 28.382 0.00000 -0.00000 0 
8.980 28.382 0.00000 -0.00000 0 
11.545 28.382 0.00000 -0.00000 0 
14.111 28.382 0.00000 -0.00000 0 
16.676 28.382 2.57111 0.35531 2 
19.242 28.382 5.14222 0.71062 2 
21.808 28.382 7.67235 1.09620 2 
24.373 28.382 7.14920 0.88479 2 
26.939 28.382 7.38144 0.93545 2 
29.504 28.382 7.32189 1.16427 2 
32.070 28.382 7.27657 1.02145 2 
34.636 28.382 7.51098 1.13013 2 
37.201 28.382 7.57787 0.94291 2 
39.767 28.382 7.60070 1.17431 2 
42.332 28.382 7.65548 1.05218 2 
44.898 28.382 7.95569 1.20199 2 
47.464 28.382 7.76746 1.11836 2 
50.029 28.382 8.02106 0.92685 2 
52.595 28.382 8.14646 1.02066 2 
55.160 28.382 8.12135 1.12456 2 
57.726 28.382 8.43020 0.95148 2 
60.292 28.382 8.34988 1.13194 2 
62.857 28.382 8.47761 1.03257 2 
65.423 28.382 8.53146 0.89185 2 
67.988 28.382 8.60007 1.06367 2 
70.554 28.382 8.78637 0.93486 2 
73.120 28.382 8.83220 0.89826 2 
75.685 28.382 8.78023 0.75258 2 
78.251 28.382 8.68928 0.85680 2 
80.816 28.382 8.75312 0.63330 2 
83.382 28.382 8.91238 0.54874 2 
85.948 28.382 9.03872 0.43201 2 
88.513 28.382 8.99187 0.48565 2 
91.079 28.382 9.01523 0.14425 2 
93.644 28.382 9.05537 0.11484 2 
96.210 28.382 8.94536 -0.10239 2 
98.776 28.382 8.61355 -0.31340 2 
101.341 28.382 8.82425 -0.45359 2 
103.907 28.382 8.49682 -0.33506 2 
106.472 28.382 8.49997 -0.25073 2 
109.038 28.382 8.17022 0.05988 2 
111.603 28.382 8.39956 -0.02154 2 
114.169 28.382 8.70524 0.09053 2 
116.735 28.382 9.18069 -0.07005 2 
119.300 28.382 0.00000 -0.00000 0 
-8.980 25.816 7.01562 0.21572 2 
-6.414 25.816 7.11748 0.40986 2 
-3.848 25.816 7.00551 0.27091 2 
-1.283 25.816 6.90156 0.24789 2 
1.283 25.816 6.95209 0.32514 2 
3.848 25.816 7.82931 0.56262 2 
6.414 25.816 0.00000 -0.00000 0 
8.980 25.816 0.00000 -0.00000 0 
11.545 25.816 0.00000 -0.00000 0 
14.111 25.816 0.00000 -0.00000 0 
16.676 25.816 3.87715 0.51783 2 
19.242 25.816 7.75430 1.03566 2 
21.808 25.816 7.28144 0.80881 2 
24.373 25.816 7.23026 1.03308 2 
26.939 25.816 7.18809 1.05380 2 
29.504 25.816 7.39079 1.03043 2 
32.070 25.816 7.33303 1.21572 2 
34.636 25.816 7.54454 1.03609 2 
37.201 25.816 7.56067 1.25578 2 
39.767 25.816 7.85131 1.13145 2 
42.332 25.816 7.74522 1.19513 2 
44.898 25.816 7.77833 1.12957 2 
47.464 25.816 7.82030 1.17562 2 
50.029 25.816 7.78922 1.30732 2 
52.595 25.816 7.98479 1.40775 2 
55.160 25.816 8.10647 1.19093 2 
57.726 25.816 8.29354 0.95356 2 
60.292 25.816 8.24607 1.25256 2 
62.857 25.816 8.47091 1.07136 2 
65.423 25.816 8.38476 0.99442 2 
67.988 25.816 8.67989 0.95492 2 
70.554 25.816 8.67450 0.85975 2 
73.120 25.816 8.61511 1.00459 2 
75.685 25.816 8.74758 0.85327 2 
78.251 25.816 8.85859 0.62888 2 
80.816 25.816 8.75252 0.77451 2 
83.382 25.816 0.00000 0.00000 0 
85.948 25.816 8.98483 0.41384 2 
88.513 25.816 9.30933 0.30895 2 
91.079 25.816 9.12125 -0.07074 2 
93.644 25.816 9.14176 -0.03224 2 
96.210 25.816 9.11100 -0.52864 2 
98.776 25.816 8.73042 -0.43042 2 
101.341 25.816 8.49165 -0.60107 2 
103.907 25.816 8.51609 -0.48886 2 
106.472 25.816 8.35427 -0.49114 2 
109.038 25.816 8.32760 -0.06242 2 
111.603 25.816 8.41907 0.20522 2 
114.169 25.816 8.47980 0.37330 2 
116.735 25.816 8.95916 0.29203 2 
119.300 25.816 0.00000 -0.00000 0 
-8.980 23.251 7.03840 0.17260 2 
-6.414 23.251 6.93506 0.13872 2 
-3.848 23.251 6.96595 0.26136 2 
-1.283 23.251 7.16247 0.41001 2 
1.283 23.251 6.82933 0.52790 2 
3.848 23.251 7.42357 0.54914 2 
6.414 23.251 0.00000 -0.00000 0 
8.980 23.251 0.00000 -0.00000 0 
11.545 23.251 0.00000 -0.00000 0 
14.111 23.251 0.00000 -0.00000 0 
16.676 23.251 -0.35841 -0.35767 2 
19.242 23.251 7.94245 0.95454 2 
21.808 23.251 7.05287 1.08625 2 
24.373 23.251 7.30222 1.06617 2 
26.939 23.251 7.40752 1.15731 2 
29.504 23.251 7.29238 1.13198 2 
32.070 23.251 7.35032 1.17293 2 
34.636 23.251 7.50611 1.21478 2 
37.201 23.251 7.46810 1.27876 2 
39.767 23.251 7.56111 1.28909 2 
42.332 23.251 7.81305 1.27024 2 
44.898 23.251 7.76923 1.19101 2 
47.464 23.251 7.89417 1.25045 2 
50.029 23.251 8.12922 1.21842 2 
52.595 23.251 8.07364 1.13234 2 
55.160 23.251 8.32245 1.24970 2 
57.726 23.251 8.12668 1.37238 2 
60.292 23.251 8.49436 1.10408 2 
62.857 23.251 8.41612 0.97539 2 
65.423 23.251 8.55031 1.22133 2 
67.988 23.251 8.73025 1.19449 2 
70.554 23.251 8.51680 1.16517 2 
73.120 23.251 8.75084 1.01639 2 
75.685 23.251 8.89016 0.96804 2 
78.251 23.251 9.31226 0.95409 2 
80.816 23.251 9.37108 0.84953 2 
83.382 23.251 0.00000 0.00000 0 
85.948 23.251 9.57683 0.59367 2 
88.513 23.251 9.81883 0.46382 2 
91.079 23.251 9.46645 -0.08285 2 
93.644 23.251 9.33055 -0.27740 2 
96.210 23.251 9.35138 -0.47187 2 
98.776 23.251 8.84631 -0.77475 2 
101.341 23.251 8.65917 -0.89687 2 
103.907 23.251 8.23839 -0.66124 2 
106.472 23.251 7.69908 -0.47784 2 
109.038 23.251 7.75452 -0.00391 2 
111.603 23.251 8.25032 0.23103 2 
114.169 23.251 8.43507 0.50216 2 
116.735 23.251 8.80785 0.66651 2 
119.300 23.251 0.00000 -0.00000 0 
-8.980 20.685 6.93364 0.08926 2 
-6.414 20.685 7.14333 0.08323 2 
-3.848 20.685 6.82929 0.25764 2 
-1.283 20.685 6.88753 0.25052 2 
1.283 20.685 6.74727 0.47823 2 
3.848 20.685 7.19686 0.56043 2 
6.414 20.685 0.00000 -0.00000 0 
8.980 20.685 0.00000 -0.00000 0 
11.545 20.685 0.00000 -0.00000 0 
14.111 20.685 0.00000 -0.00000 0 
16.676 20.685 -0.55470 0.53220 2 
19.242 20.685 7.07923 1.19375 2 
21.808 20.685 7.01961 1.01831 2 
24.373 20.685 7.24849 1.25386 2 
26.939 20.685 7.16020 1.20890 2 
29.504 20.685 7.29324 1.26018 2 
32.070 20.685 7.31257 1.19094 2 
34.636 20.685 7.44990 1.31644 2 
37.201 20.685 7.40749 1.32686 2 
39.767 20.685 7.66793 1.27814 2 
42.332 20.685 7.86192 1.27210 2 
44.898 20.685 7.94198 1.30468 2 
47.464 20.685 7.96530 1.20799 2 
50.029 20.685 8.13582 1.46219 2 
52.595 20.685 8.09288 1.38078 2 
55.160 20.685 8.22448 1.56150 2 
57.726 20.685 8.41002 1.34757 2 
60.292 20.685 8.30191 1.30164 2 
62.857 20.685 8.38411 1.31491 2 
65.423 20.685 9.01182 1.06053 2 
67.988 20.685 8.85170 0.89113 2 
70.554 20.685 9.10123 1.19526 2 
73.120 20.685 9.35458 1.03971 2 
75.685 20.685 9.30906 1.25825 2 
78.251 20.685 4.65613 0.47704 2 
80.816 20.685 9.66529 1.16590 2 
83.382 20.685 0.00000 0.00000 0 
85.948 20.685 0.00000 0.00000 0 
88.513 20.685 0.00000 0.00000 0 
91.079 20.685 10.58673 0.40546 2 
93.644 20.685 9.77254 -0.53547 2 
96.210 20.685 9.69255 -0.82324 2 
98.776 20.685 9.77108 -1.21183 2 
101.341 20.685 8.71728 -1.37643 2 
103.907 20.685 8.04058 -1.22378 2 
106.472 20.685 7.50555 -0.47079 2 
109.038 20.685 7.57327 0.09890 2 
111.603 20.685 7.73783 0.58571 2 
114.169 20.685 8.71675 0.65930 2 
116.735 20.685 9.85853 0.22152 2 
119.300 20.685 0.00000 -0.00000 0 
-8.980 18.120 6.91198 0.02460 2 
-6.414 18.120 6.83686 0.04702 2 
-3.848 18.120 6.68301 0.25140 2 
-1.283 18.120 6.82980 0.35245 2 
1.283 18.120 6.64209 0.35193 2 
3.848 18.120 6.93248 0.54173 2 
6.414 18.120 0.00000 -0.00000 0 
8.980 18.120 0.00000 -0.00000 0 
11.545 18.120 0.00000 -0.00000 0 
14.111 18.120 0.00000 -0.00000 0 
16.676 18.120 -0.75099 1.42207 2 
19.242 18.120 7.18800 1.07627 2 
21.808 18.120 7.04004 1.19473 2 
24.373 18.120 7.10171 1.26566 2 
26.939 18.120 7.12032 1.26355 2 
29.504 18.120 7.31091 1.51382 2 
32.070 18.120 7.35494 1.28217 2 
34.636 18.120 7.30235 1.48347 2 
37.201 18.120 7.55955 1.47587 2 
39.767 18.120 7.57617 1.32927 2 
42.332 18.120 7.59319 1.55100 2 
44.898 18.120 8.03662 1.45419 2 
47.464 18.120 7.90646 1.52067 2 
50.029 18.120 8.16077 1.29749 2 
52.595 18.120 8.23410 1.28219 2 
55.160 18.120 8.60891 1.50788 2 
57.726 18.120 8.66360 1.10780 2 
60.292 18.120 8.36716 1.46683 2 
62.857 18.120 9.64849 1.47546 2 
65.423 18.120 9.50571 0.96256 2 
67.988 18.120 0.00000 -0.00000 0 
70.554 18.120 0.00000 -0.00000 0 
73.120 18.120 0.00000 -0.00000 0 
75.685 18.120 0.00000 -0.00000 0 
78.251 18.120 0.00000 -0.00000 0 
80.816 18.120 0.00000 -0.00000 0 
83.382 18.120 0.00000 -0.00000 0 
85.948 18.120 -1.20659 0.04780 2 
88.513 18.120 2.95746 0.65567 2 
91.079 18.120 5.67377 0.68390 2 
93.644 18.120 12.09962 0.14718 2 
96.210 18.120 11.10810 -1.29737 2 
98.776 18.120 9.44151 -1.83689 2 
101.341 18.120 8.36253 -1.86992 2 
103.907 18.120 7.28356 -1.90295 2 
106.472 18.120 7.10347 -0.99980 2 
109.038 18.120 6.99419 0.09074 2 
111.603 18.120 7.64654 1.22457 2 
114.169 18.120 8.06901 -0.13030 2 
116.735 18.120 7.07310 0.77376 2 
119.300 18.120 0.00000 -0.00000 0 
-8.980 15.554 6.79885 0.08262 2 
-6.414 15.554 6.77313 -0.03406 2 
-3.848 15.554 6.65807 0.16922 2 
-1.283 15.554 6.67044 0.12878 2 
1.283 15.554 6.61260 0.35254 2 
3.848 15.554 6.79152 0.41171 2 
6.414 15.554 0.00000 -0.00000 0 
8.980 15.554 0.00000 -0.00000 0 
11.545 15.554 0.00000 -0.00000 0 
14.111 15.554 0.00000 -0.00000 0 
16.676 15.554 3.63072 0.61866 2 
19.242 15.554 7.26144 1.23733 2 
21.808 15.554 6.80892 1.38515 2 
24.373 15.554 7.17297 1.34743 2 
26.939 15.554 7.09570 1.39616 2 
29.504 15.554 7.22119 1.52479 2 
32.070 15.554 7.33078 1.44328 2 
34.636 15.554 7.51040 1.44266 2 
37.201 15.554 7.51005 1.53067 2 
39.767 15.554 7.65077 1.63321 2 
42.332 15.554 8.06449 1.69112 2 
44.898 15.554 8.11074 1.64181 2 
47.464 15.554 7.82990 1.46757 2 
50.029 15.554 7.98333 1.48823 2 
52.595 15.554 4.11705 0.64110 2 
55.160 15.554 0.00000 -0.00000 0 
57.726 15.554 0.00000 -0.00000 0 
60.292 15.554 0.00000 -0.00000 0 
62.857 15.554 0.00000 -0.00000 0 
65.423 15.554 0.00000 -0.00000 0 
67.988 15.554 0.00000 -0.00000 0 
70.554 15.554 0.00000 -0.00000 0 
73.120 15.554 0.00000 -0.00000 0 
75.685 15.554 0.00000 -0.00000 0 
78.251 15.554 0.00000 -0.00000 0 
80.816 15.554 -0.13502 0.15496 2 
83.382 15.554 1.01282 0.57647 2 
85.948 15.554 0.01141 -0.07127 2 
88.513 15.554 1.59997 0.30368 2 
91.079 15.554 0.76082 0.96234 2 
93.644 15.554 1.57547 0.90656 2 
96.210 15.554 1.89835 -0.06701 2 
98.776 15.554 5.93719 -1.17465 2 
101.341 15.554 4.92322 -1.60983 2 
103.907 15.554 3.90924 -2.04501 2 
106.472 15.554 3.54019 -1.53024 2 
109.038 15.554 2.65511 -0.77833 2 
111.603 15.554 0.07401 1.95390 2 
114.169 15.554 4.56342 1.30630 2 
116.735 15.554 4.28766 1.32599 2 
119.300 15.554 0.00000 -0.00000 0 
-8.980 12.988 6.74641 -0.08080 2 
-6.414 12.988 6.61912 -0.00497 2 
-3.848 12.988 6.77498 0.10639 2 
-1.283 12.988 6.66982 0.15841 2 
1.283 12.988 6.37636 0.30621 2 
3.848 12.988 3.18818 0.15310 2 
6.414 12.988 0.00000 -0.00000 0 
8.980 12.988 0.00000 -0.00000 0 
11.545 12.988 0.00000 -0.00000 0 
14.111 12.988 0.00000 -0.00000 0 
16.676 12.988 3.29069 0.73793 2 
19.242 12.988 6.58137 1.47585 2 
21.808 12.988 7.06140 1.46440 2 
24.373 12.988 6.90023 1.50562 2 
26.939 12.988 7.27766 1.79824 2 
29.504 12.988 7.64158 1.58131 2 
32.070 12.988 7.62411 1.64439 2 
34.636 12.988 7.48073 1.96394 2 
37.201 12.988 7.88850 1.70961 2 
39.767 12.988 8.43298 1.75139 2 
42.332 12.988 0.00000 -0.00000 0 
44.898 12.988 0.00000 -0.00000 0 
47.464 12.988 0.00000 -0.00000 0 
50.029 12.988 0.00000 -0.00000 0 
52.595 12.988 0.00000 -0.00000 0 
55.160 12.988 0.00000 -0.00000 0 
57.726 12.988 0.00000 -0.00000 0 
60.292 12.988 0.00000 -0.00000 0 
62.857 12.988 0.00000 -0.00000 0 
65.423 12.988 0.00000 -0.00000 0 
67.988 12.988 0.00000 -0.00000 0 
70.554 12.988 0.00000 -0.00000 0 
73.120 12.988 0.00000 -0.00000 0 
75.685 12.988 -1.22319 -0.41226 2 
78.251 12.988 -1.47781 -0.69250 2 
80.816 12.988 -1.24126 -0.20125 2 
83.382 12.988 -0.91104 -0.26948 2 
85.948 12.988 -1.40183 -0.21790 2 
88.513 12.988 -1.12199 -0.36376 2 
91.079 12.988 -2.84116 1.03876 2 
93.644 12.988 -1.61926 -0.30685 2 
96.210 12.988 -4.15789 0.05041 2 
98.776 12.988 -5.44745 0.65226 2 
101.341 12.988 -3.23618 -0.49152 2 
103.907 12.988 -2.65346 -0.93373 2 
106.472 12.988 -1.24508 -0.90610 2 
109.038 12.988 0.92482 -0.01416 2 
111.603 12.988 0.20522 1.52304 2 
114.169 12.988 1.05783 2.74291 2 
116.735 12.988 0.78207 2.76260 2 
119.300 12.988 0.50632 2.78228 2 
-8.980 10.423 6.75733 -0.27364 2 
-6.414 10.423 6.71089 -0.13150 2 
-3.848 10.423 6.42903 -0.08723 2 
-1.283 10.423 6.38606 0.08052 2 
1.283 10.423 6.28176 0.19000 2 
3.848 10.423 4.20908 0.07416 2 
6.414 10.423 1.58637 0.00812 2 
8.980 10.423 0.00000 -0.00000 0 
11.545 10.423 0.00000 -0.00000 0 
14.111 10.423 0.00000 -0.00000 0 
16.676 10.423 2.19379 0.49195 2 
19.242 10.423 4.38758 0.98390 2 
21.808 10.423 6.06536 1.43522 2 
24.373 10.423 7.50112 1.82264 2 
26.939 10.423 7.72993 1.99485 2 
29.504 10.423 3.82079 0.79065 2 
32.070 10.423 0.00000 -0.00000 0 
34.636 10.423 0.00000 -0.00000 0 
37.201 10.423 0.00000 -0.00000 0 
39.767 10.423 0.00000 -0.00000 0 
42.332 10.423 0.00000 -0.00000 0 
44.898 10.423 0.00000 -0.00000 0 
47.464 10.423 0.00000 -0.00000 0 
50.029 10.423 0.00000 -0.00000 0 
52.595 10.423 0.00000 -0.00000 0 
55.160 10.423 0.00000 -0.00000 0 
57.726 10.423 0.00000 -0.00000 0 
60.292 10.423 0.00000 -0.00000 0 
62.857 10.423 0.00000 -0.00000 0 
65.423 10.423 0.00000 -0.00000 0 
67.988 10.423 -0.13108 -0.03870 2 
70.554 10.423 -0.55641 0.08793 2 
73.120 10.423 -1.91988 -0.91386 2 
75.685 10.423 -2.44638 -0.82451 2 
78.251 10.423 -3.83987 -1.35384 2 
80.816 10.423 -3.49621 -0.34618 2 
83.382 10.423 -1.96735 -0.65039 2 
85.948 10.423 -2.98262 -0.87905 2 
88.513 10.423 -3.53307 0.71157 2 
91.079 10.423 -4.13178 0.63875 2 
93.644 10.423 -2.79406 0.11019 2 
96.210 10.423 -4.78703 0.53214 2 
98.776 10.423 -4.36180 1.18732 2 
101.341 10.423 -5.37760 0.17028 2 
103.907 10.423 -3.39393 -1.32530 2 
106.472 10.423 -1.84943 0.36627 2 
109.038 10.423 0.79428 -0.02897 2 
111.603 10.423 0.86962 0.13438 2 
114.169 10.423 0.82941 1.78259 2 
116.735 10.423 -0.17853 2.44888 2 
119.300 10.423 0.29893 2.32577 2 
-8.980 7.857 6.96741 -0.19855 2 
-6.414 7.857 6.51829 -0.24861 2 
-3.848 7.857 6.56346 -0.24746 2 
-1.283 7.857 6.19869 -0.09918 2 
1.283 7.857 6.23076 -0.08660 2 
3.848 7.857 6.34547 0.03248 2 
6.414 7.857 3.17274 0.01624 2 
8.980 7.857 0.00000 -0.00000 0 
11.545 7.857 0.00000 -0.00000 0 
14.111 7.857 0.00000 -0.00000 2 
16.676 7.857 1.46253 0.32797 2 
19.242 7.857 2.19379 0.49195 2 
21.808 7.857 0.00000 -0.00000 0 
24.373 7.857 0.00000 -0.00000 0 
26.939 7.857 0.00000 -0.00000 0 
29.504 7.857 0.00000 -0.00000 0 
32.070 7.857 0.00000 -0.00000 0 
34.636 7.857 0.00000 -0.00000 0 
37.201 7.857 0.00000 -0.00000 0 
39.767 7.857 0.00000 -0.00000 0 
42.332 7.857 0.00000 -0.00000 0 
44.898 7.857 0.00000 -0.00000 0 
47.464 7.857 0.00000 -0.00000 0 
50.029 7.857 0.00000 -0.00000 0 
52.595 7.857 0.00000 -0.00000 0 
55.160 7.857 0.00000 -0.00000 0 
57.726 7.857 0.00000 -0.00000 0 
60.292 7.857 -0.23239 0.04765 2 
62.857 7.857 -0.72305 -0.34751 2 
65.423 7.857 -0.33241 -0.24210 2 
67.988 7.857 -2.01170 -0.83679 2 
70.554 7.857 -2.53211 -1.41184 2 
73.120 7.857 -3.16365 -1.57312 2 
75.685 7.857 -2.68206 -1.23020 2 
78.251 7.857 -3.62258 -1.36410 2 
80.816 7.857 -3.04453 -0.78969 2 
83.382 7.857 -3.02365 -1.03129 2 
85.948 7.857 -3.14326 -1.23942 2 
88.513 7.857 -3.37759 -0.75674 2 
91.079 7.857 -4.54665 0.42575 2 
93.644 7.857 -3.96886 0.52723 2 
96.210 7.857 -3.21421 1.50742 2 
98.776 7.857 -3.27614 1.72239 2 
101.341 7.857 -3.53181 -0.43485 2 
103.907 7.857 -2.37809 0.41761 2 
106.472 7.857 -0.82974 0.49939 2 
109.038 7.857 0.66374 -0.04377 2 
111.603 7.857 0.30612 0.58643 2 
114.169 7.857 -0.05150 1.21663 2 
116.735 7.857 0.28579 2.06703 2 
119.300 7.857 0.09154 1.86926 2 
-8.980 5.292 6.61408 -0.51818 2 
-6.414 5.292 6.71500 -0.41576 2 
-3.848 5.292 6.37598 -0.36585 2 
-1.283 5.292 6.17859 -0.33235 2 
1.283 5.292 5.88337 -0.12035 2 
3.848 5.292 6.37929 0.22322 2 
6.414 5.292 3.18965 0.11161 2 
8.980 5.292 0.00000 -0.00000 0 
11.545 5.292 0.00000 -0.00000 0 
14.111 5.292 0.00000 -0.00000 0 
16.676 5.292 0.00000 -0.00000 0 
19.242 5.292 0.00000 -0.00000 0 
21.808 5.292 0.00000 -0.00000 0 
24.373 5.292 0.00000 -0.00000 0 
26.939 5.292 0.00000 -0.00000 0 
29.504 5.292 0.00000 -0.00000 0 
32.070 5.292 0.00000 -0.00000 0 
34.636 5.292 0.00000 -0.00000 0 
37.201 5.292 0.00000 -0.00000 0 
39.767 5.292 0.00000 -0.00000 0 
42.332 5.292 0.00000 -0.00000 0 
44.898 5.292 0.00000 -0.00000 0 
47.464 5.292 0.00000 -0.00000 0 
50.029 5.292 0.00000 -0.00000 0 
52.595 5.292 0.04870 0.05638 2 
55.160 5.292 -0.52077 -0.16343 2 
57.726 5.292 0.03501 -0.04879 2 
60.292 5.292 -0.46479 0.09529 2 
62.857 5.292 -1.44609 -0.69503 2 
65.423 5.292 -1.45659 -0.86555 2 
67.988 5.292 -2.98230 -1.39578 2 
70.554 5.292 -2.98022 -1.58075 2 
73.120 5.292 -2.74970 -1.39033 2 
75.685 5.292 -2.91774 -1.63588 2 
78.251 5.292 -3.40529 -1.37435 2 
80.816 5.292 -3.05704 -1.24304 2 
83.382 5.292 -1.69426 -0.82577 2 
85.948 5.292 -3.24287 -1.35739 2 
88.513 5.292 -3.77057 -1.01989 2 
91.079 5.292 -3.68713 0.15067 2 
93.644 5.292 -3.68254 0.62669 2 
96.210 5.292 -2.56032 1.29620 2 
98.776 5.292 -2.67772 1.19335 2 
101.341 5.292 -2.14664 1.51543 2 
103.907 5.292 -0.71905 0.93696 2 
106.472 5.292 -0.75226 1.32287 2 
109.038 5.292 -0.15813 0.68719 2 
111.603 5.292 0.46744 0.69094 2 
114.169 5.292 0.09693 1.13474 2 
116.735 5.292 0.76316 2.28922 2 
119.300 5.292 0.02704 1.63360 2 
-8.980 2.726 6.76868 -0.56368 2 
-6.414 2.726 6.51998 -0.52694 2 
-3.848 2.726 6.23793 -0.45379 2 
-1.283 2.726 6.15435 -0.46731 2 
1.283 2.726 6.20604 -0.55520 2 
3.848 2.726 3.10302 -0.27760 2 
6.414 2.726 0.00000 -0.00000 0 
8.980 2.726 0.00000 -0.00000 0 
11.545 2.726 0.00000 -0.00000 0 
14.111 2.726 0.00000 -0.00000 0 
16.676 2.726 0.00000 -0.00000 0 
19.242 2.726 0.00000 -0.00000 0 
21.808 2.726 0.00000 -0.00000 0 
24.373 2.726 0.00000 -0.00000 0 
26.939 2.726 0.00000 -0.00000 0 
29.504 2.726 0.00000 -0.00000 0 
32.070 2.726 0.00000 -0.00000 0 
34.636 2.726 0.00000 -0.00000 0 
37.201 2.726 0.00000 -0.00000 0 
39.767 2.726 0.00000 -0.00000 0 
42.332 2.726 0.00000 -0.00000 0 
44.898 2.726 0.00000 -0.00000 0 
47.464 2.726 -0.37121 -0.10152 2 
50.029 2.726 -0.42636 -0.15219 2 
52.595 2.726 0.09740 0.11275 2 
55.160 2.726 -1.04153 -0.32686 2 
57.726 2.726 -0.56016 -0.38843 2 
60.292 2.726 -0.95093 -1.32343 2 
62.857 2.726 -1.76585 -1.40622 2 
65.423 2.726 -2.58078 -1.48901 2 
67.988 2.726 -2.79348 -1.14261 2 
70.554 2.726 -2.59599 -0.99646 2 
73.120 2.726 -2.39851 -0.85031 2 
75.685 2.726 -2.14631 -1.06036 2 
78.251 2.726 -2.39266 -1.40230 2 
80.816 2.726 -3.04675 -1.38282 2 
83.382 2.726 -1.79710 -1.51475 2 
85.948 2.726 -2.03964 -0.62099 2 
88.513 2.726 -1.90912 -0.92480 2 
91.079 2.726 -1.52431 -0.76297 2 
93.644 2.726 -2.06797 -0.05438 2 
96.210 2.726 -0.93675 0.40514 2 
98.776 2.726 -0.19279 0.58128 2 
101.341 2.726 -0.56437 2.79109 2 
103.907 2.726 0.36599 2.81931 2 
106.472 2.726 2.06264 2.20317 2 
109.038 2.726 -0.97999 1.41816 2 
111.603 2.726 1.01629 1.43755 2 
114.169 2.726 0.24535 1.05284 2 
116.735 2.726 0.10395 1.22538 2 
119.300 2.726 -0.03746 1.39793 2 
-8.980 0.160 6.92327 -0.60917 2 
-6.414 0.160 6.54846 -0.62514 2 
-3.848 0.160 6.54922 -0.77915 2 
-1.283 0.160 6.21928 -0.67335 2 
1.283 0.160 6.21524 -0.89658 2 
3.848 0.160 0.00000 -0.00000 0 
6.414 0.160 0.00000 -0.00000 0 
8.980 0.160 0.00000 -0.00000 0 
11.545 0.160 0.00000 -0.00000 0 
14.111 0.160 0.00000 -0.00000 0 
16.676 0.160 0.00000 -0.00000 0 
19.242 0.160 0.00000 -0.00000 0 
21.808 0.160 0.00000 -0.00000 0 
24.373 0.160 0.00000 -0.00000 0 
26.939 0.160 0.00000 -0.00000 0 
29.504 0.160 0.00000 -0.00000 0 
32.070 0.160 0.00000 -0.00000 0 
34.636 0.160 0.00000 -0.00000 0 
37.201 0.160 0.00000 -0.00000 0 
39.767 0.160 -0.66510 -0.19566 2 
42.332 0.160 -0.37927 -0.15623 2 
44.898 0.160 -0.56452 -0.33049 2 
47.464 0.160 -0.74243 -0.20304 2 
50.029 0.160 -1.15299 -0.62593 2 
52.595 0.160 -1.52691 -0.62354 2 
55.160 0.160 -1.38785 -0.74661 2 
57.726 0.160 -1.24879 -0.86968 2 
60.292 0.160 -0.73079 -0.61657 2 
62.857 0.160 -1.19580 -1.17440 2 
65.423 0.160 -1.65713 -1.51905 2 
67.988 0.160 -1.43567 -1.35880 2 
70.554 0.160 -1.41035 -0.86204 2 
73.120 0.160 -1.38502 -0.36527 2 
75.685 0.160 -1.45223 -0.18929 2 
78.251 0.160 -1.08143 -1.03371 2 
80.816 0.160 -0.50809 -1.01494 2 
83.382 0.160 -1.56647 -1.12317 2 
85.948 0.160 -0.47630 -0.62354 2 
88.513 0.160 -1.21535 -1.45938 2 
91.079 0.160 -1.81661 -1.01744 2 
93.644 0.160 -0.81619 -0.57161 2 
96.210 0.160 -1.25476 0.27231 2 
98.776 0.160 2.31984 3.97034 2 
101.341 0.160 2.45156 2.23784 2 
103.907 0.160 3.27484 3.37824 2 
106.472 0.160 4.87754 3.08347 2 
109.038 0.160 0.32781 1.66114 2 
111.603 0.160 0.71561 2.52793 2 
114.169 0.160 2.20254 1.94249 2 
116.735 0.160 1.23490 1.91380 2 
119.300 0.160 0.06572 2.05540 2 
-8.980 -2.405 6.63675 -0.75515 2 
-6.414 -2.405 6.64030 -0.84853 2 
-3.848 -2.405 6.37361 -0.78129 2 
-1.283 -2.405 6.27557 -0.92642 2 
1.283 -2.405 0.00000 -0.00000 0 
3.848 -2.405 0.00000 -0.00000 0 
6.414 -2.405 0.00000 -0.00000 0 
8.980 -2.405 0.00000 -0.00000 0 
11.545 -2.405 0.00000 -0.00000 0 
14.111 -2.405 0.00000 -0.00000 0 
16.676 -2.405 0.00000 -0.00000 0 
19.242 -2.405 0.00000 -0.00000 0 
21.808 -2.405 0.00000 -0.00000 0 
24.373 -2.405 0.00000 -0.00000 0 
26.939 -2.405 0.00000 -0.00000 0 
29.504 -2.405 0.00000 -0.00000 0 
32.070 -2.405 -0.24570 -0.01102 2 
34.636 -2.405 -0.49139 -0.02204 2 
37.201 -2.405 -0.95699 -0.20984 2 
39.767 -2.405 -1.33020 -0.39132 2 
42.332 -2.405 -1.58419 -0.55737 2 
44.898 -2.405 -1.59473 -0.26319 2 
47.464 -2.405 -1.51193 -0.47365 2 
50.029 -2.405 -1.37667 -0.85733 2 
52.595 -2.405 -1.36566 -0.99326 2 
55.160 -2.405 -1.09316 -0.72797 2 