TITLE = "B00094"
VARIABLES = "X [mm]", "Y [mm]", "Vx [m/s]", "Vy [m/s]", "Flag"
ZONE T="Frame 1", I=51, J=39, F=POINT
-8.980 41.210 7.23783 0.23900 2 
-6.414 41.210 7.30570 0.44888 2 
-3.848 41.210 7.24934 0.20491 2 
-1.283 41.210 7.24198 0.50970 2 
1.283 41.210 7.65362 0.60585 2 
3.848 41.210 0.00000 -0.00000 0 
6.414 41.210 0.00000 -0.00000 0 
8.980 41.210 0.00000 -0.00000 0 
11.545 41.210 0.00000 -0.00000 0 
14.111 41.210 0.00000 -0.00000 0 
16.676 41.210 0.00000 -0.00000 0 
19.242 41.210 4.04375 0.27428 2 
21.808 41.210 8.08749 0.54857 2 
24.373 41.210 7.81274 0.58940 2 
26.939 41.210 7.53798 0.63022 2 
29.504 41.210 7.45565 0.66318 2 
32.070 41.210 7.63969 0.64070 2 
34.636 41.210 7.50483 0.74889 2 
37.201 41.210 7.59798 0.89049 2 
39.767 41.210 7.71532 0.73910 2 
42.332 41.210 7.80129 0.89497 2 
44.898 41.210 7.63842 1.06176 2 
47.464 41.210 8.15239 0.77887 2 
50.029 41.210 7.95962 0.90487 2 
52.595 41.210 8.08505 0.90073 2 
55.160 41.210 8.21047 0.89659 2 
57.726 41.210 8.07907 0.99324 2 
60.292 41.210 8.02680 0.70561 2 
62.857 41.210 8.25413 1.02461 2 
65.423 41.210 8.16861 0.72375 2 
67.988 41.210 8.44244 0.74037 2 
70.554 41.210 8.46744 0.79604 2 
73.120 41.210 8.65561 0.56046 2 
75.685 41.210 8.59066 0.53947 2 
78.251 41.210 8.52572 0.51847 2 
80.816 41.210 0.00000 0.00000 0 
83.382 41.210 8.66522 0.44389 2 
85.948 41.210 8.66699 0.38585 2 
88.513 41.210 8.58896 0.41991 2 
91.079 41.210 8.67414 0.29153 2 
93.644 41.210 8.62251 0.32601 2 
96.210 41.210 8.80488 -0.09615 2 
98.776 41.210 8.53851 -0.09607 2 
101.341 41.210 8.56414 -0.14854 2 
103.907 41.210 8.56673 -0.35275 2 
106.472 41.210 8.24274 -0.27293 2 
109.038 41.210 8.45877 -0.61610 2 
111.603 41.210 8.26471 -0.32082 2 
114.169 41.210 8.29400 -0.43378 2 
116.735 41.210 8.32329 -0.54675 2 
119.300 41.210 0.00000 -0.00000 0 
-8.980 38.644 6.97264 0.33454 2 
-6.414 38.644 7.23076 0.29086 2 
-3.848 38.644 7.14879 0.44226 2 
-1.283 38.644 7.05552 0.52001 2 
1.283 38.644 7.62083 0.32578 2 
3.848 38.644 0.00000 -0.00000 0 
6.414 38.644 0.00000 -0.00000 0 
8.980 38.644 0.00000 -0.00000 0 
11.545 38.644 0.00000 -0.00000 0 
14.111 38.644 0.00000 -0.00000 0 
16.676 38.644 0.00000 -0.00000 0 
19.242 38.644 3.97506 0.33692 2 
21.808 38.644 7.87455 1.02599 2 
24.373 38.644 7.27805 0.87024 2 
26.939 38.644 7.46933 0.75786 2 
29.504 38.644 7.37530 0.97646 2 
32.070 38.644 7.48739 0.84452 2 
34.636 38.644 7.51472 0.87195 2 
37.201 38.644 7.69725 0.98113 2 
39.767 38.644 7.64233 0.94303 2 
42.332 38.644 7.73799 0.85554 2 
44.898 38.644 7.77030 0.77286 2 
47.464 38.644 8.02003 1.10449 2 
50.029 38.644 7.77403 0.96429 2 
52.595 38.644 7.93302 0.95775 2 
55.160 38.644 8.16017 0.71845 2 
57.726 38.644 8.22528 1.05044 2 
60.292 38.644 8.15741 0.76022 2 
62.857 38.644 8.22866 0.90988 2 
65.423 38.644 8.31861 0.59977 2 
67.988 38.644 8.36791 0.96179 2 
70.554 38.644 8.41321 0.60280 2 
73.120 38.644 8.42177 0.68853 2 
75.685 38.644 8.50151 0.64454 2 
78.251 38.644 8.47465 0.57607 2 
80.816 38.644 0.00000 0.00000 0 
83.382 38.644 8.55142 0.49943 2 
85.948 38.644 8.60787 0.42584 2 
88.513 38.644 8.65014 0.26521 2 
91.079 38.644 8.56366 0.32519 2 
93.644 38.644 8.55768 0.11182 2 
96.210 38.644 8.64213 0.04916 2 
98.776 38.644 8.59403 -0.17625 2 
101.341 38.644 8.54529 -0.10610 2 
103.907 38.644 8.50342 -0.29667 2 
106.472 38.644 8.48874 -0.38634 2 
109.038 38.644 8.58687 -0.69471 2 
111.603 38.644 8.33821 -0.60855 2 
114.169 38.644 8.08635 -0.66439 2 
116.735 38.644 8.40107 -0.57439 2 
119.300 38.644 0.00000 -0.00000 0 
-8.980 36.079 7.07562 0.24918 2 
-6.414 36.079 7.33338 0.31930 2 
-3.848 36.079 7.24747 0.35987 2 
-1.283 36.079 7.18190 0.33726 2 
1.283 36.079 7.54207 0.47092 2 
3.848 36.079 0.00000 -0.00000 0 
6.414 36.079 0.00000 -0.00000 0 
8.980 36.079 0.00000 -0.00000 0 
11.545 36.079 0.00000 -0.00000 0 
14.111 36.079 0.00000 -0.00000 0 
16.676 36.079 0.00000 -0.00000 0 
19.242 36.079 3.90637 0.39955 2 
21.808 36.079 7.81275 0.79910 2 
24.373 36.079 7.33393 0.82356 2 
26.939 36.079 7.28847 0.94721 2 
29.504 36.079 7.40835 0.83986 2 
32.070 36.079 7.46307 0.78237 2 
34.636 36.079 7.54547 0.94501 2 
37.201 36.079 7.64574 0.99850 2 
39.767 36.079 7.58833 0.83497 2 
42.332 36.079 7.78041 1.00350 2 
44.898 36.079 7.54839 0.81119 2 
47.464 36.079 7.91593 1.00757 2 
50.029 36.079 7.98681 0.88513 2 
52.595 36.079 7.98272 0.93200 2 
55.160 36.079 8.11523 0.69763 2 
57.726 36.079 8.17070 0.92601 2 
60.292 36.079 8.12725 0.62417 2 
62.857 36.079 8.45437 1.10104 2 
65.423 36.079 8.65445 0.76009 2 
67.988 36.079 8.58206 0.70270 2 
70.554 36.079 8.47837 0.89455 2 
73.120 36.079 8.42602 0.69280 2 
75.685 36.079 8.50177 0.60155 2 
78.251 36.079 8.61632 0.69511 2 
80.816 36.079 0.00000 0.00000 0 
83.382 36.079 8.70763 0.46286 2 
85.948 36.079 8.79664 0.43159 2 
88.513 36.079 8.75941 0.35821 2 
91.079 36.079 8.88943 0.16616 2 
93.644 36.079 8.92986 -0.05995 2 
96.210 36.079 8.69457 0.20726 2 
98.776 36.079 8.72278 -0.14596 2 
101.341 36.079 8.88968 -0.16687 2 
103.907 36.079 8.64212 -0.42675 2 
106.472 36.079 8.66018 -0.28711 2 
109.038 36.079 8.65902 -0.75053 2 
111.603 36.079 8.29498 -0.67049 2 
114.169 36.079 8.46309 -0.73380 2 
116.735 36.079 8.45846 -0.74470 2 
119.300 36.079 0.00000 -0.00000 0 
-8.980 33.513 7.14267 0.34224 2 
-6.414 33.513 7.15091 0.30962 2 
-3.848 33.513 7.10707 0.24578 2 
-1.283 33.513 6.99677 0.49885 2 
1.283 33.513 7.62664 0.37624 2 
3.848 33.513 0.00000 -0.00000 0 
6.414 33.513 0.00000 -0.00000 0 
8.980 33.513 0.00000 -0.00000 0 
11.545 33.513 0.00000 -0.00000 0 
14.111 33.513 0.00000 -0.00000 0 
16.676 33.513 0.00000 -0.00000 0 
19.242 33.513 3.83832 0.43708 2 
21.808 33.513 7.67664 0.87415 2 
24.373 33.513 7.26496 0.76352 2 
26.939 33.513 7.31925 0.96751 2 
29.504 33.513 7.43190 0.97270 2 
32.070 33.513 7.56671 0.85469 2 
34.636 33.513 7.60923 0.80861 2 
37.201 33.513 7.42740 0.98809 2 
39.767 33.513 7.76521 0.96298 2 
42.332 33.513 7.72331 0.85329 2 
44.898 33.513 7.93205 1.09290 2 
47.464 33.513 7.97900 0.95769 2 
50.029 33.513 8.02133 0.95145 2 
52.595 33.513 8.00758 1.11329 2 
55.160 33.513 7.86122 1.09001 2 
57.726 33.513 8.17742 0.82354 2 
60.292 33.513 8.29660 0.77765 2 
62.857 33.513 8.24238 0.73304 2 
65.423 33.513 8.29461 0.61164 2 
67.988 33.513 8.32041 0.92318 2 
70.554 33.513 8.50186 0.90173 2 
73.120 33.513 8.60488 0.69316 2 
75.685 33.513 8.53838 0.67451 2 
78.251 33.513 8.74403 0.74328 2 
80.816 33.513 0.00000 0.00000 0 
83.382 33.513 8.70306 0.54415 2 
85.948 33.513 8.74299 0.55561 2 
88.513 33.513 8.87277 0.40153 2 
91.079 33.513 8.74169 0.43396 2 
93.644 33.513 8.79714 0.22929 2 
96.210 33.513 8.99123 -0.09971 2 
98.776 33.513 8.75579 0.05182 2 
101.341 33.513 8.82519 -0.27719 2 
103.907 33.513 8.52592 -0.42295 2 
106.472 33.513 8.89992 -0.67301 2 
109.038 33.513 8.60277 -0.48841 2 
111.603 33.513 8.44518 -0.71856 2 
114.169 33.513 8.23049 -0.84089 2 
116.735 33.513 8.54979 -0.98342 2 
119.300 33.513 0.00000 -0.00000 0 
-8.980 30.948 7.05757 0.20821 2 
-6.414 30.948 7.15632 0.28067 2 
-3.848 30.948 7.08775 0.32153 2 
-1.283 30.948 7.12292 0.48002 2 
1.283 30.948 7.27420 0.23275 2 
3.848 30.948 0.00000 -0.00000 0 
6.414 30.948 0.00000 -0.00000 0 
8.980 30.948 0.00000 -0.00000 0 
11.545 30.948 0.00000 -0.00000 0 
14.111 30.948 0.00000 -0.00000 0 
16.676 30.948 0.00000 -0.00000 0 
19.242 30.948 3.90193 0.50204 2 
21.808 30.948 7.80386 1.00409 2 
24.373 30.948 7.32674 0.90206 2 
26.939 30.948 7.40399 1.02078 2 
29.504 30.948 7.32159 0.81520 2 
32.070 30.948 7.36968 1.15144 2 
34.636 30.948 7.53545 0.96602 2 
37.201 30.948 7.73930 0.87065 2 
39.767 30.948 7.58927 1.14881 2 
42.332 30.948 7.96263 1.18770 2 
44.898 30.948 7.84591 1.00249 2 
47.464 30.948 7.84542 1.02681 2 
50.029 30.948 8.13228 0.93849 2 
52.595 30.948 7.94985 1.06157 2 
55.160 30.948 8.18764 0.74682 2 
57.726 30.948 8.05969 1.27452 2 
60.292 30.948 8.32735 1.01652 2 
62.857 30.948 8.40501 0.83563 2 
65.423 30.948 8.46201 0.88160 2 
67.988 30.948 8.51385 0.83636 2 
70.554 30.948 8.65681 0.91044 2 
73.120 30.948 8.62815 0.78118 2 
75.685 30.948 8.60072 0.75225 2 
78.251 30.948 8.59254 1.00591 2 
80.816 30.948 0.00000 0.00000 0 
83.382 30.948 8.78056 0.42294 2 
85.948 30.948 8.78999 0.37178 2 
88.513 30.948 8.91381 0.46965 2 
91.079 30.948 9.07829 0.37273 2 
93.644 30.948 8.84520 0.08768 2 
96.210 30.948 8.92590 0.20554 2 
98.776 30.948 9.20346 -0.10097 2 
101.341 30.948 8.78687 -0.21128 2 
103.907 30.948 9.12687 -0.54521 2 
106.472 30.948 9.05449 -0.70608 2 
109.038 30.948 8.88546 -0.72880 2 
111.603 30.948 8.58283 -1.04689 2 
114.169 30.948 8.43676 -1.07943 2 
116.735 30.948 8.35625 -1.22393 2 
119.300 30.948 0.00000 -0.00000 0 
-8.980 28.382 7.14384 0.11858 2 
-6.414 28.382 6.95428 0.32611 2 
-3.848 28.382 7.04250 0.39007 2 
-1.283 28.382 6.94796 0.32626 2 
1.283 28.382 7.28311 0.33818 2 
3.848 28.382 3.61785 0.36248 2 
6.414 28.382 0.00000 -0.00000 0 
8.980 28.382 0.00000 -0.00000 0 
11.545 28.382 0.00000 -0.00000 0 
14.111 28.382 0.00000 -0.00000 0 
16.676 28.382 2.33955 -0.11460 2 
19.242 28.382 4.67911 -0.22920 2 
21.808 28.382 7.37621 0.82575 2 
24.373 28.382 7.32326 1.00412 2 
26.939 28.382 7.29293 1.05923 2 
29.504 28.382 7.29964 1.05110 2 
32.070 28.382 7.26403 1.13302 2 
34.636 28.382 7.52308 1.17630 2 
37.201 28.382 7.39435 1.14433 2 
39.767 28.382 7.83233 0.98033 2 
42.332 28.382 7.65812 1.11502 2 
44.898 28.382 7.76110 1.08036 2 
47.464 28.382 7.86208 1.21826 2 
50.029 28.382 7.98369 1.06553 2 
52.595 28.382 8.29047 1.01571 2 
55.160 28.382 8.21456 1.16742 2 
57.726 28.382 8.04673 0.97596 2 
60.292 28.382 8.30005 1.12716 2 
62.857 28.382 8.28989 0.99587 2 
65.423 28.382 8.54851 0.93027 2 
67.988 28.382 8.44638 1.07921 2 
70.554 28.382 8.69911 1.08134 2 
73.120 28.382 8.65022 0.78054 2 
75.685 28.382 8.82643 0.95663 2 
78.251 28.382 8.89645 0.76611 2 
80.816 28.382 8.74820 0.68615 2 
83.382 28.382 8.81528 0.52799 2 
85.948 28.382 8.83474 0.43942 2 
88.513 28.382 9.07956 0.59639 2 
91.079 28.382 8.87736 0.47907 2 
93.644 28.382 9.10723 0.22015 2 
96.210 28.382 8.90504 0.26980 2 
98.776 28.382 9.15834 -0.01213 2 
101.341 28.382 9.26171 -0.40404 2 
103.907 28.382 9.08243 -0.34917 2 
106.472 28.382 8.97616 -0.86490 2 
109.038 28.382 9.06365 -0.95056 2 
111.603 28.382 8.59878 -1.20662 2 
114.169 28.382 8.55581 -1.18546 2 
116.735 28.382 8.58554 -1.57714 2 
119.300 28.382 0.00000 -0.00000 0 
-8.980 25.816 6.99070 0.12517 2 
-6.414 25.816 7.09600 0.20798 2 
-3.848 25.816 7.01634 0.18776 2 
-1.283 25.816 7.06146 0.34540 2 
1.283 25.816 6.90880 0.46218 2 
3.848 25.816 7.23570 0.72495 2 
6.414 25.816 0.00000 -0.00000 0 
8.980 25.816 0.00000 -0.00000 0 
11.545 25.816 0.00000 -0.00000 0 
14.111 25.816 0.00000 -0.00000 0 
16.676 25.816 4.00172 0.47855 2 
19.242 25.816 8.00343 0.95711 2 
21.808 25.816 7.17996 0.96227 2 
24.373 25.816 7.31977 1.10618 2 
26.939 25.816 7.11686 1.05664 2 
29.504 25.816 7.39217 1.01965 2 
32.070 25.816 7.45395 1.20642 2 
34.636 25.816 7.34006 1.15582 2 
37.201 25.816 7.66723 1.08774 2 
39.767 25.816 7.82387 1.13158 2 
42.332 25.816 7.77450 1.00110 2 
44.898 25.816 7.81009 1.37778 2 
47.464 25.816 7.85647 1.07967 2 
50.029 25.816 7.85003 1.17714 2 
52.595 25.816 8.13410 1.25530 2 
55.160 25.816 8.23836 1.08167 2 
57.726 25.816 8.30478 0.87135 2 
60.292 25.816 8.40692 1.09966 2 
62.857 25.816 8.37695 1.10425 2 
65.423 25.816 8.38428 0.90687 2 
67.988 25.816 8.46508 0.95115 2 
70.554 25.816 8.73062 0.99313 2 
73.120 25.816 8.61417 1.08451 2 
75.685 25.816 8.50042 0.72872 2 
78.251 25.816 8.65885 1.13070 2 
80.816 25.816 8.72525 0.89821 2 
83.382 25.816 0.00000 0.00000 0 
85.948 25.816 9.12491 0.52126 2 
88.513 25.816 8.88904 0.45022 2 
91.079 25.816 9.14179 0.42896 2 
93.644 25.816 8.90050 0.32645 2 
96.210 25.816 9.10536 0.49447 2 
98.776 25.816 9.35165 0.09893 2 
101.341 25.816 9.69734 -0.12315 2 
103.907 25.816 9.72548 -0.54773 2 
106.472 25.816 9.44584 -0.88245 2 
109.038 25.816 9.30807 -1.12961 2 
111.603 25.816 8.92228 -1.63925 2 
114.169 25.816 8.48372 -1.89380 2 
116.735 25.816 8.25479 -2.08935 2 
119.300 25.816 0.00000 -0.00000 0 
-8.980 23.251 6.94150 0.09611 2 
-6.414 23.251 7.05098 0.20854 2 
-3.848 23.251 6.82686 0.28579 2 
-1.283 23.251 6.98090 0.39445 2 
1.283 23.251 6.86297 0.37008 2 
3.848 23.251 7.38660 0.60949 2 
6.414 23.251 0.00000 -0.00000 0 
8.980 23.251 0.00000 -0.00000 0 
11.545 23.251 0.00000 -0.00000 0 
14.111 23.251 0.00000 -0.00000 0 
16.676 23.251 4.16745 0.52197 2 
19.242 23.251 8.33489 1.04395 2 
21.808 23.251 7.04464 1.05774 2 
24.373 23.251 7.25195 1.03627 2 
26.939 23.251 7.25138 1.14785 2 
29.504 23.251 7.33772 1.14383 2 
32.070 23.251 7.14514 1.16155 2 
34.636 23.251 7.48932 1.18492 2 
37.201 23.251 7.44328 1.23007 2 
39.767 23.251 7.81540 1.28283 2 
42.332 23.251 7.65005 1.21421 2 
44.898 23.251 7.80014 1.14045 2 
47.464 23.251 7.73924 1.26227 2 
50.029 23.251 7.84641 1.11279 2 
52.595 23.251 8.14630 1.09028 2 
55.160 23.251 8.12715 1.37708 2 
57.726 23.251 8.29275 1.35625 2 
60.292 23.251 8.33777 1.07744 2 
62.857 23.251 8.42684 1.05178 2 
65.423 23.251 8.34427 1.10237 2 
67.988 23.251 8.51978 1.13763 2 
70.554 23.251 8.60797 1.20328 2 
73.120 23.251 8.73129 1.12850 2 
75.685 23.251 8.81632 0.97378 2 
78.251 23.251 9.15234 0.78317 2 
80.816 23.251 9.28386 0.76917 2 
83.382 23.251 0.00000 0.00000 0 
85.948 23.251 9.41509 0.60310 2 
88.513 23.251 9.34621 0.52042 2 
91.079 23.251 9.27733 0.43773 2 
93.644 23.251 9.33787 0.65236 2 
96.210 23.251 9.05170 0.52543 2 
98.776 23.251 9.42177 0.99317 2 
101.341 23.251 10.15338 0.34263 2 
103.907 23.251 10.43396 -0.80345 2 
106.472 23.251 9.97498 -1.05389 2 
109.038 23.251 9.55710 -1.49205 2 
111.603 23.251 9.28946 -2.08960 2 
114.169 23.251 8.71419 -2.41070 2 
116.735 23.251 8.99099 -2.26603 2 
119.300 23.251 0.00000 -0.00000 0 
-8.980 20.685 7.01552 0.10107 2 
-6.414 20.685 6.97413 0.24936 2 
-3.848 20.685 6.95654 0.21364 2 
-1.283 20.685 6.90312 0.46694 2 
1.283 20.685 6.81582 0.36457 2 
3.848 20.685 6.88708 0.61391 2 
6.414 20.685 0.00000 -0.00000 0 
8.980 20.685 0.00000 -0.00000 0 
11.545 20.685 0.00000 -0.00000 0 
14.111 20.685 0.00000 -0.00000 0 
16.676 20.685 3.81682 0.53824 2 
19.242 20.685 7.63363 1.07647 2 
21.808 20.685 6.83028 1.00545 2 
24.373 20.685 7.09292 1.17731 2 
26.939 20.685 7.25853 1.31760 2 
29.504 20.685 7.26420 1.28342 2 
32.070 20.685 7.43695 1.30781 2 
34.636 20.685 7.46625 1.25922 2 
37.201 20.685 7.65141 1.30940 2 
39.767 20.685 7.47981 1.54926 2 
42.332 20.685 7.67569 1.50204 2 
44.898 20.685 7.79964 1.26081 2 
47.464 20.685 7.93646 1.25679 2 
50.029 20.685 8.15045 1.32740 2 
52.595 20.685 8.02593 1.14887 2 
55.160 20.685 8.09271 1.43380 2 
57.726 20.685 8.23486 1.12702 2 
60.292 20.685 8.25074 1.27013 2 
62.857 20.685 8.62562 1.19299 2 
65.423 20.685 8.97394 1.22823 2 
67.988 20.685 8.89087 1.29006 2 
70.554 20.685 8.94401 1.50313 2 
73.120 20.685 8.89725 0.82259 2 
75.685 20.685 9.33884 1.15978 2 
78.251 20.685 8.37628 1.19674 2 
80.816 20.685 9.29475 1.17075 2 
83.382 20.685 0.00000 0.00000 0 
85.948 20.685 0.00000 0.00000 0 
88.513 20.685 0.00000 0.00000 0 
91.079 20.685 9.79727 0.37317 2 
93.644 20.685 8.99514 0.33464 2 
96.210 20.685 6.91740 0.33960 2 
98.776 20.685 9.85490 1.15407 2 
101.341 20.685 10.64689 0.88138 2 
103.907 20.685 10.16395 -0.31248 2 
106.472 20.685 10.58675 -1.33244 2 
109.038 20.685 10.24944 -2.07575 2 
111.603 20.685 9.87495 -2.86475 2 
114.169 20.685 8.82070 -3.24362 2 
116.735 20.685 8.52381 -3.17666 2 
119.300 20.685 0.00000 -0.00000 0 
-8.980 18.120 6.77585 0.13783 2 
-6.414 18.120 6.99916 0.17550 2 
-3.848 18.120 6.87816 0.08603 2 
-1.283 18.120 6.72748 0.13140 2 
1.283 18.120 6.81556 0.45428 2 
3.848 18.120 7.02599 0.57940 2 
6.414 18.120 0.00000 -0.00000 0 
8.980 18.120 0.00000 -0.00000 0 
11.545 18.120 0.00000 -0.00000 0 
14.111 18.120 0.00000 -0.00000 0 
16.676 18.120 3.73834 0.50896 2 
19.242 18.120 7.47669 1.01791 2 
21.808 18.120 7.05875 1.13197 2 
24.373 18.120 7.02586 1.25574 2 
26.939 18.120 7.17779 1.21476 2 
29.504 18.120 7.23016 1.54131 2 
32.070 18.120 7.39190 1.41662 2 
34.636 18.120 7.46283 1.60015 2 
37.201 18.120 7.68784 1.40804 2 
39.767 18.120 7.66920 1.27050 2 
42.332 18.120 7.80203 1.43202 2 
44.898 18.120 7.73541 1.54190 2 
47.464 18.120 7.90475 1.31114 2 
50.029 18.120 8.04017 1.48302 2 
52.595 18.120 8.20704 1.38040 2 
55.160 18.120 8.32627 1.47244 2 
57.726 18.120 8.75431 1.65007 2 
60.292 18.120 8.67797 1.06705 2 
62.857 18.120 8.88965 1.35884 2 
65.423 18.120 4.48697 0.61411 2 
67.988 18.120 0.00000 -0.00000 0 
70.554 18.120 0.00000 -0.00000 0 
73.120 18.120 0.00000 -0.00000 0 
75.685 18.120 0.00000 -0.00000 0 
78.251 18.120 0.00000 -0.00000 0 
80.816 18.120 0.00000 -0.00000 0 
83.382 18.120 0.00000 -0.00000 0 
85.948 18.120 2.57376 -0.06086 2 
88.513 18.120 -0.82307 0.02617 2 
91.079 18.120 10.31720 0.30861 2 
93.644 18.120 8.78793 -0.18732 2 
96.210 18.120 4.78310 0.15377 2 
98.776 18.120 4.52890 1.45736 2 
101.341 18.120 4.27469 2.76096 2 
103.907 18.120 7.51592 2.02982 2 
106.472 18.120 10.80466 -0.75196 2 
109.038 18.120 11.55818 -2.74114 2 
111.603 18.120 10.58880 -4.45237 2 
114.169 18.120 8.65504 -4.95414 2 
116.735 18.120 8.35469 -4.33324 2 
119.300 18.120 0.00000 -0.00000 0 
-8.980 15.554 6.99926 0.06631 2 
-6.414 15.554 6.66716 0.05646 2 
-3.848 15.554 6.77481 0.08788 2 
-1.283 15.554 6.58164 0.23814 2 
1.283 15.554 6.49429 0.18449 2 
3.848 15.554 6.89991 0.46519 2 
6.414 15.554 0.00000 -0.00000 0 
8.980 15.554 0.00000 -0.00000 0 
11.545 15.554 0.00000 -0.00000 0 
14.111 15.554 0.00000 -0.00000 0 
16.676 15.554 3.54956 0.61093 2 
19.242 15.554 7.09912 1.22187 2 
21.808 15.554 6.80691 1.27538 2 
24.373 15.554 7.12217 1.57237 2 
26.939 15.554 6.99916 1.28097 2 
29.504 15.554 7.15198 1.64418 2 
32.070 15.554 7.11972 1.39449 2 
34.636 15.554 7.46417 1.42439 2 
37.201 15.554 7.42508 1.72135 2 
39.767 15.554 7.90134 1.56194 2 
42.332 15.554 8.04778 1.51051 2 
44.898 15.554 7.91651 1.53745 2 
47.464 15.554 8.34717 1.62682 2 
50.029 15.554 8.41198 1.29079 2 
52.595 15.554 4.10352 0.69020 2 
55.160 15.554 0.00000 -0.00000 0 
57.726 15.554 0.00000 -0.00000 0 
60.292 15.554 0.00000 -0.00000 0 
62.857 15.554 0.00000 -0.00000 0 
65.423 15.554 0.00000 -0.00000 0 
67.988 15.554 0.00000 -0.00000 0 
70.554 15.554 0.00000 -0.00000 0 
73.120 15.554 0.00000 -0.00000 0 
75.685 15.554 0.00000 -0.00000 0 
78.251 15.554 0.00000 -0.00000 0 
80.816 15.554 -0.34477 -0.20535 2 
83.382 15.554 -0.05273 0.06168 2 
85.948 15.554 0.23931 0.32871 2 
88.513 15.554 0.08661 0.03542 2 
91.079 15.554 -0.06610 -0.25787 2 
93.644 15.554 -0.76557 -0.24801 2 
96.210 15.554 4.16466 1.99297 2 
98.776 15.554 4.13132 3.00824 2 
101.341 15.554 4.64406 5.31364 2 
103.907 15.554 6.90616 4.98599 2 
106.472 15.554 7.34524 0.79034 2 
109.038 15.554 8.79696 -2.20514 2 
111.603 15.554 10.73807 -5.29828 2 
114.169 15.554 8.88031 -5.83681 2 
116.735 15.554 7.59411 -5.82370 2 
119.300 15.554 0.00000 -0.00000 0 
-8.980 12.988 6.74391 -0.20318 2 
-6.414 12.988 6.60764 0.01200 2 
-3.848 12.988 6.65661 0.02162 2 
-1.283 12.988 6.62100 0.14852 2 
1.283 12.988 6.42012 0.31621 2 
3.848 12.988 6.77384 0.35099 2 
6.414 12.988 0.00000 -0.00000 0 
8.980 12.988 0.00000 -0.00000 0 
11.545 12.988 0.00000 -0.00000 0 
14.111 12.988 0.00000 -0.00000 0 
16.676 12.988 3.76459 0.73423 2 
19.242 12.988 7.52919 1.46846 2 
21.808 12.988 6.93472 1.46951 2 
24.373 12.988 6.85061 1.66843 2 
26.939 12.988 7.19943 1.64679 2 
29.504 12.988 7.47152 1.70713 2 
32.070 12.988 7.58954 1.76923 2 
34.636 12.988 7.56594 1.97703 2 
37.201 12.988 8.21646 1.48743 2 
39.767 12.988 7.30570 1.79666 2 
42.332 12.988 0.00000 -0.00000 0 
44.898 12.988 0.00000 -0.00000 0 
47.464 12.988 0.00000 -0.00000 0 
50.029 12.988 0.00000 -0.00000 0 
52.595 12.988 0.00000 -0.00000 0 
55.160 12.988 0.00000 -0.00000 0 
57.726 12.988 0.00000 -0.00000 0 
60.292 12.988 0.00000 -0.00000 0 
62.857 12.988 0.00000 -0.00000 0 
65.423 12.988 0.00000 -0.00000 0 
67.988 12.988 0.00000 -0.00000 0 
70.554 12.988 0.00000 -0.00000 0 
73.120 12.988 0.00000 -0.00000 0 
75.685 12.988 -0.77591 -0.04913 2 
78.251 12.988 -0.36457 -0.26876 2 
80.816 12.988 -0.61759 -0.14930 2 
83.382 12.988 -0.70777 0.02647 2 
85.948 12.988 -0.79794 0.20223 2 
88.513 12.988 -0.95065 -0.09106 2 
91.079 12.988 -0.87502 -0.04357 2 
93.644 12.988 0.11699 0.00812 2 
96.210 12.988 0.82233 -0.53411 2 
98.776 12.988 2.27049 7.10664 2 
101.341 12.988 1.08707 5.72575 2 
103.907 12.988 5.03459 5.19553 2 
106.472 12.988 5.55759 0.63699 2 
109.038 12.988 7.67074 -2.76816 2 
111.603 12.988 8.64027 -2.96470 2 
114.169 12.988 6.60198 -7.45015 2 
116.735 12.988 6.57559 -6.28025 2 
119.300 12.988 -0.11281 -4.47150 2 
-8.980 10.423 6.86861 -0.16401 2 
-6.414 10.423 6.60804 -0.29072 2 
-3.848 10.423 6.58115 -0.06481 2 
-1.283 10.423 6.47398 0.08901 2 
1.283 10.423 6.27406 0.01103 2 
3.848 10.423 6.42672 0.22003 2 
6.414 10.423 3.21336 0.11002 2 
8.980 10.423 0.00000 -0.00000 0 
11.545 10.423 0.00000 -0.00000 0 
14.111 10.423 0.00000 -0.00000 0 
16.676 10.423 2.50973 0.48949 2 
19.242 10.423 5.01946 0.97898 2 
21.808 10.423 6.86608 1.48184 2 
24.373 10.423 7.29447 1.64756 2 
26.939 10.423 7.33842 1.74734 2 
29.504 10.423 3.73576 0.85356 2 
32.070 10.423 0.00000 -0.00000 0 
34.636 10.423 0.00000 -0.00000 0 
37.201 10.423 0.00000 -0.00000 0 
39.767 10.423 0.00000 -0.00000 0 
42.332 10.423 0.00000 -0.00000 0 
44.898 10.423 0.00000 -0.00000 0 
47.464 10.423 0.00000 -0.00000 0 
50.029 10.423 0.00000 -0.00000 0 
52.595 10.423 0.00000 -0.00000 0 
55.160 10.423 0.00000 -0.00000 0 
57.726 10.423 0.00000 -0.00000 0 
60.292 10.423 0.00000 -0.00000 0 
62.857 10.423 0.00000 -0.00000 0 
65.423 10.423 0.00000 -0.00000 0 
67.988 10.423 -1.14115 -0.25542 2 
70.554 10.423 -0.55852 -0.40974 2 
73.120 10.423 -1.82626 -0.72347 2 
75.685 10.423 -1.55181 -0.09827 2 
78.251 10.423 -0.83442 -0.41838 2 
80.816 10.423 -0.81643 -0.09132 2 
83.382 10.423 -1.14344 0.02621 2 
85.948 10.423 -1.83519 0.07576 2 
88.513 10.423 -1.75956 0.12324 2 
91.079 10.423 -1.68393 0.17073 2 
93.644 10.423 0.99956 0.26426 2 
96.210 10.423 2.13083 4.60424 2 
98.776 10.423 0.91430 6.63067 2 
101.341 10.423 0.70312 6.12069 2 
103.907 10.423 1.68715 5.25141 2 
106.472 10.423 2.64660 2.58981 2 
109.038 10.423 3.81014 0.35638 2 
111.603 10.423 4.42578 -4.00924 2 
114.169 10.423 4.50390 -6.63891 2 
116.735 10.423 5.10178 -7.29383 2 
119.300 10.423 0.31268 -5.71493 2 
-8.980 7.857 6.73550 -0.35565 2 
-6.414 7.857 6.43827 -0.23426 2 
-3.848 7.857 6.55775 -0.23190 2 
-1.283 7.857 6.24346 -0.13165 2 
1.283 7.857 6.10396 -0.10239 2 
3.848 7.857 6.29762 0.25452 2 
6.414 7.857 3.14881 0.12726 2 
8.980 7.857 0.00000 -0.00000 0 
11.545 7.857 0.00000 -0.00000 0 
14.111 7.857 0.00000 -0.00000 2 
16.676 7.857 1.67315 0.32633 2 
19.242 7.857 2.50973 0.48949 2 
21.808 7.857 0.00000 -0.00000 0 
24.373 7.857 0.00000 -0.00000 0 
26.939 7.857 0.00000 -0.00000 0 
29.504 7.857 0.00000 -0.00000 0 
32.070 7.857 0.00000 -0.00000 0 
34.636 7.857 0.00000 -0.00000 0 
37.201 7.857 0.00000 -0.00000 0 
39.767 7.857 0.00000 -0.00000 0 
42.332 7.857 0.00000 -0.00000 0 
44.898 7.857 0.00000 -0.00000 0 
47.464 7.857 0.00000 -0.00000 0 
50.029 7.857 0.00000 -0.00000 0 
52.595 7.857 0.00000 -0.00000 0 
55.160 7.857 0.00000 -0.00000 0 
57.726 7.857 0.00000 -0.00000 0 
60.292 7.857 -1.04701 -0.37480 2 
62.857 7.857 -1.36394 -0.19124 2 
65.423 7.857 -0.73664 -0.16242 2 
67.988 7.857 -2.28229 -0.51085 2 
70.554 7.857 -0.99545 -0.38546 2 
73.120 7.857 -1.25588 -0.64227 2 
75.685 7.857 -1.34678 -0.62080 2 
78.251 7.857 -1.30428 -0.56801 2 
80.816 7.857 -0.94127 -0.03142 2 
83.382 7.857 -0.96576 0.28037 2 
85.948 7.857 -2.04188 0.10329 2 
88.513 7.857 -1.89503 0.41128 2 
91.079 7.857 0.28559 -0.18167 2 
93.644 7.857 2.17233 1.42801 2 
96.210 7.857 2.04707 3.79659 2 
98.776 7.857 -0.40093 4.66488 2 
101.341 7.857 -0.65242 5.59469 2 
103.907 7.857 -0.90391 6.52449 2 
106.472 7.857 0.34086 2.21493 2 
109.038 7.857 2.32929 2.42339 2 
111.603 7.857 2.17682 -6.25509 2 
114.169 7.857 1.00785 -3.04811 2 
116.735 7.857 3.07999 -6.52606 2 
119.300 7.857 0.14501 -5.53819 2 
-8.980 5.292 6.76382 -0.60854 2 
-6.414 5.292 6.69849 -0.34017 2 
-3.848 5.292 6.33055 -0.42067 2 
-1.283 5.292 6.20307 -0.39861 2 
1.283 5.292 5.84092 -0.32989 2 
3.848 5.292 6.48807 0.05551 2 
6.414 5.292 1.57441 0.06363 2 
8.980 5.292 0.00000 -0.00000 0 
11.545 5.292 0.00000 -0.00000 0 
14.111 5.292 0.00000 -0.00000 0 
16.676 5.292 0.00000 -0.00000 0 
19.242 5.292 0.00000 -0.00000 0 
21.808 5.292 0.00000 -0.00000 0 
24.373 5.292 0.00000 -0.00000 0 
26.939 5.292 0.00000 -0.00000 0 
29.504 5.292 0.00000 -0.00000 0 
32.070 5.292 0.00000 -0.00000 0 
34.636 5.292 0.00000 -0.00000 0 
37.201 5.292 0.00000 -0.00000 0 
39.767 5.292 0.00000 -0.00000 0 
42.332 5.292 0.00000 -0.00000 0 
44.898 5.292 0.00000 -0.00000 0 
47.464 5.292 0.00000 -0.00000 0 
50.029 5.292 0.00000 -0.00000 0 
52.595 5.292 -0.18449 -0.08247 2 
55.160 5.292 -1.04243 -0.41088 2 
57.726 5.292 -1.69892 -0.55048 2 
60.292 5.292 -2.09403 -0.74960 2 
62.857 5.292 -2.18972 -0.94265 2 
65.423 5.292 -1.10845 -0.57207 2 
67.988 5.292 -2.05124 -0.12836 2 
70.554 5.292 -1.43237 -0.36119 2 
73.120 5.292 -0.89269 -0.24376 2 
75.685 5.292 -0.59685 -0.93052 2 
78.251 5.292 -0.73968 -0.31382 2 
80.816 5.292 -0.27276 0.20925 2 
83.382 5.292 -0.78808 0.53453 2 
85.948 5.292 -1.06875 0.96149 2 
88.513 5.292 -0.81543 1.51707 2 
91.079 5.292 1.62571 0.99678 2 
93.644 5.292 1.55912 2.26556 2 
96.210 5.292 0.98080 2.00778 2 
98.776 5.292 -0.29543 3.67959 2 
101.341 5.292 -0.90112 4.64389 2 
103.907 5.292 -1.54526 5.05989 2 
106.472 5.292 -2.22786 4.92757 2 
109.038 5.292 -1.39815 0.00812 2 
111.603 5.292 -0.68908 -3.25602 2 
114.169 5.292 -0.40060 -5.81527 2 
116.735 5.292 1.05821 -5.75829 2 
119.300 5.292 -0.02267 -5.36146 2 
-8.980 2.726 6.73546 -0.50320 2 
-6.414 2.726 6.42758 -0.57206 2 
-3.848 2.726 6.40897 -0.70402 2 
-1.283 2.726 6.05285 -0.61769 2 
1.283 2.726 6.11679 -0.57111 2 
3.848 2.726 6.54481 -0.19964 2 
6.414 2.726 0.00000 -0.00000 0 
8.980 2.726 0.00000 -0.00000 0 
11.545 2.726 0.00000 -0.00000 0 
14.111 2.726 0.00000 -0.00000 0 
16.676 2.726 0.00000 -0.00000 0 
19.242 2.726 0.00000 -0.00000 0 
21.808 2.726 0.00000 -0.00000 0 
24.373 2.726 0.00000 -0.00000 0 
26.939 2.726 0.00000 -0.00000 0 
29.504 2.726 0.00000 -0.00000 0 
32.070 2.726 0.00000 -0.00000 0 
34.636 2.726 0.00000 -0.00000 0 
37.201 2.726 0.00000 -0.00000 0 
39.767 2.726 0.00000 -0.00000 0 
42.332 2.726 0.00000 -0.00000 0 
44.898 2.726 0.00000 -0.00000 0 
47.464 2.726 -0.33079 -0.22615 2 
50.029 2.726 -0.14992 -0.31871 2 
52.595 2.726 -1.97648 -0.74270 2 
55.160 2.726 -1.22841 -1.00704 2 
57.726 2.726 -2.05806 -0.71102 2 
60.292 2.726 -2.04036 -0.82937 2 
62.857 2.726 -2.16866 -0.94982 2 
65.423 2.726 -1.48027 -0.98172 2 
67.988 2.726 -0.82752 0.29350 2 
70.554 2.726 -0.32077 0.06987 2 
73.120 2.726 0.19771 0.15735 2 
75.685 2.726 0.35479 -0.64350 2 
78.251 2.726 -0.17507 -0.05964 2 
80.816 2.726 0.00630 0.28256 2 
83.382 2.726 0.17019 -0.14067 2 
85.948 2.726 -0.00189 0.94453 2 
88.513 2.726 0.00361 0.88191 2 
91.079 2.726 0.02386 1.36735 2 
93.644 2.726 0.68105 1.74939 2 
96.210 2.726 0.30996 2.73029 2 
98.776 2.726 0.45110 2.74657 2 
101.341 2.726 -1.50401 3.72759 2 
103.907 2.726 -1.31772 3.77030 2 
106.472 2.726 -1.38575 4.53402 2 
109.038 2.726 -1.80943 0.73389 2 
111.603 2.726 -1.23987 -2.13706 2 
114.169 2.726 -1.19961 -5.06394 2 
116.735 2.726 0.05924 -4.55417 2 
119.300 2.726 0.24920 -3.95795 2 
-8.980 0.160 6.97669 -0.67318 2 
-6.414 0.160 6.62845 -0.77760 2 
-3.848 0.160 6.30716 -0.71499 2 
-1.283 0.160 6.16831 -0.82348 2 
1.283 0.160 6.15078 -0.73360 2 
3.848 0.160 0.00000 -0.00000 0 
6.414 0.160 0.00000 -0.00000 0 
8.980 0.160 0.00000 -0.00000 0 
11.545 0.160 0.00000 -0.00000 0 
14.111 0.160 0.00000 -0.00000 0 
16.676 0.160 0.00000 -0.00000 0 
19.242 0.160 0.00000 -0.00000 0 
21.808 0.160 0.00000 -0.00000 0 
24.373 0.160 0.00000 -0.00000 0 
26.939 0.160 0.00000 -0.00000 0 
29.504 0.160 0.00000 -0.00000 0 
32.070 0.160 0.00000 -0.00000 0 
34.636 0.160 0.00000 -0.00000 0 
37.201 0.160 0.00000 -0.00000 0 
39.767 0.160 -0.34433 -0.06662 2 
42.332 0.160 -0.23633 0.11027 2 
44.898 0.160 -0.36789 -0.26299 2 
47.464 0.160 -0.66158 -0.45231 2 
50.029 0.160 -1.14947 -0.85946 2 
52.595 0.160 -2.04187 -0.55889 2 
55.160 0.160 -1.66197 -0.68193 2 
57.726 0.160 -1.54544 -0.65235 2 
60.292 0.160 -1.98669 -0.90914 2 
62.857 0.160 -0.95275 -1.27861 2 
65.423 0.160 -0.58872 0.44901 2 
67.988 0.160 -0.37163 0.41367 2 
70.554 0.160 -0.35099 -0.05636 2 
73.120 0.160 0.47651 -0.24140 2 
75.685 0.160 0.07609 -0.84203 2 
78.251 0.160 -0.06988 -0.43928 2 
80.816 0.160 -0.33940 0.21032 2 
83.382 0.160 0.35300 -0.69909 2 
85.948 0.160 -0.47280 -0.00771 2 
88.513 0.160 -1.00263 0.91053 2 
91.079 0.160 0.54903 0.93381 2 
93.644 0.160 -1.05634 0.77341 2 
96.210 0.160 -0.52009 0.68867 2 
98.776 0.160 0.85711 3.07622 2 
101.341 0.160 1.03413 3.63433 2 
103.907 0.160 -0.22129 2.65573 2 
106.472 0.160 -0.54364 4.14047 2 
109.038 0.160 -2.22071 1.45965 2 
111.603 0.160 -1.79065 -1.01810 2 
114.169 0.160 -1.06755 -3.14135 2 
116.735 0.160 0.39551 -4.50444 2 
119.300 0.160 0.17504 -1.60938 2 
-8.980 -2.405 6.93660 -0.82248 2 
-6.414 -2.405 6.53816 -0.81489 2 
-3.848 -2.405 6.38425 -0.80771 2 
-1.283 -2.405 6.41984 -0.99917 2 
1.283 -2.405 0.00000 -0.00000 0 
3.848 -2.405 0.00000 -0.00000 0 
6.414 -2.405 0.00000 -0.00000 0 
8.980 -2.405 0.00000 -0.00000 0 
11.545 -2.405 0.00000 -0.00000 0 
14.111 -2.405 0.00000 -0.00000 0 
16.676 -2.405 0.00000 -0.00000 0 
19.242 -2.405 0.00000 -0.00000 0 
21.808 -2.405 0.00000 -0.00000 0 
24.373 -2.405 0.00000 -0.00000 0 
26.939 -2.405 0.00000 -0.00000 0 
29.504 -2.405 0.00000 -0.00000 0 
32.070 -2.405 -0.37208 -0.12680 2 
34.636 -2.405 -0.74417 -0.25360 2 
37.201 -2.405 -0.53832 -0.03771 2 
39.767 -2.405 -0.68866 -0.13324 2 
42.332 -2.405 -1.02399 -0.57986 2 
44.898 -2.405 -1.39709 -0.84845 2 
47.464 -2.405 -1.45450 -0.68494 2 
50.029 -2.405 -1.67184 -0.74701 2 
52.595 -2.405 -1.17141 -0.47740 2 
55.160 -2.405 -1.18640 -0.17402 2 